ITEM: TIMESTEP
0
ITEM: NUMBER OF ATOMS
140
ITEM: BOX BOUNDS pp pp pp
0.0000000000000000e+00 8.8419000000000008e+00
0.0000000000000000e+00 5.1048999999999998e+00
0.0000000000000000e+00 3.1699300000000001e+01
ITEM: ATOMS id mol type q x y z
3 1 1 0.387501 0 0 2.99907
4 1 1 0.383618 4.42095 2.55245 2.99907
7 1 1 0.234936 5.89463 0 1.26005
8 1 1 0.234896 1.47368 2.55245 1.26005
9 1 1 0.405152 2.94727 0 3.57885
10 1 1 0.406641 7.36822 2.55245 3.57885
13 1 1 0.390064 5.89463 0 5.31787
14 1 1 0.390162 1.47368 2.55245 5.31787
15 1 1 0.383134 0 0 5.89765
16 1 1 0.384152 4.42095 2.55245 5.89765
25 1 2 -0.285185 1.59941 4.32671 2.12956
26 1 2 -0.281893 6.02036 1.77426 2.12956
29 1 2 -0.291732 4.29513 4.32671 2.12956
30 1 2 -0.27461 8.71608 1.77426 2.12956
33 1 2 -0.274991 7.36822 4.10883 2.12956
34 1 2 -0.292034 2.94727 1.55638 2.12956
39 1 2 -0.256637 5.76881 3.33064 4.44836
40 1 2 -0.256339 1.34786 0.778191 4.44836
43 1 2 -0.257008 3.07309 3.33064 4.44836
44 1 2 -0.256225 7.49404 0.778191 4.44836
47 1 2 -0.256271 0 3.54852 4.44836
48 1 2 -0.256972 4.42095 0.996068 4.44836
11 1 1 0.376215 2.94727 0 7.63668
12 1 1 0.375542 7.36822 2.55245 7.63668
17 1 1 0.376363 5.89463 0 8.21678
18 1 1 0.3755 1.47368 2.55245 8.21678
19 1 1 0.404357 5.89463 0 12.2746
20 1 1 0.406381 1.47368 2.55245 12.2746
21 1 1 0.383362 0 0 9.95548
22 1 1 0.384037 4.42095 2.55245 9.95548
23 1 1 0.389875 2.94727 0 10.5356
24 1 1 0.390132 7.36822 2.55245 10.5356
37 1 2 -0.280254 4.54677 4.32671 6.76717
38 1 2 -0.281887 0.12582 1.77426 6.76717
41 1 2 -0.28216 7.24249 4.32671 6.76717
42 1 2 -0.280019 2.82154 1.77426 6.76717
45 1 2 -0.280899 1.47368 4.10883 6.76717
46 1 2 -0.281256 5.89463 1.55638 6.76717
49 1 2 -0.257221 7.49404 4.32671 11.4051
50 1 2 -0.256926 3.07309 1.77426 11.4051
51 1 2 -0.281601 8.71608 3.33064 9.08597
52 1 2 -0.280284 4.29513 0.778191 9.08597
53 1 2 -0.256996 1.34786 4.32671 11.4051
54 1 2 -0.257086 5.76881 1.77426 11.4051
55 1 2 -0.279879 6.02036 3.33064 9.08597
56 1 2 -0.282085 1.59941 0.778191 9.08597
57 1 2 -0.257487 4.42095 4.10883 11.4051
58 1 2 -0.256866 0 1.55638 11.4051
59 1 2 -0.281345 2.94727 3.54852 9.08597
60 1 2 -0.280576 7.36822 0.996068 9.08597
1 1 1 0.38664 0 0 12.8544
2 1 1 0.383322 4.42095 2.55245 12.8544
5 1 1 0.241486 2.94727 0 14.5934
6 1 1 0.23013 7.36822 2.55245 14.5934
27 1 2 -0.27984 2.82154 3.33064 13.7239
28 1 2 -0.284613 7.24249 0.778191 13.7239
31 1 2 -0.273652 0.12582 3.33064 13.7239
32 1 2 -0.290114 4.54677 0.778191 13.7239
35 1 2 -0.291268 5.89463 3.54852 13.7239
36 1 2 -0.273651 1.47368 0.996068 13.7239
61 1 3 -0.0322357 5.09444 2.6011 18.6737
62 1 3 -0.0159323 4.53775 3.05309 18.4912
65 1 3 0.00933402 2.9196 0.834192 18.2978
66 1 3 0.0699293 2.23293 0.656388 18.087
71 1 3 -0.0203756 5.42159 3.35714 18.5526
72 1 3 -0.0034599 4.90151 3.85854 18.713
73 1 3 -0.0148033 5.46102 1.65991 17.6923
74 1 3 0.0933249 5.25474 1.97116 17.0533
83 1 3 0.0748849 3.94526 2.41472 17.4289
84 1 3 0.0204039 3.56859 1.95528 17.8702
87 1 3 0.109207 7.12144 2.02072 17.1053
88 1 3 0.0171933 6.76768 1.57971 17.5827
93 1 3 0.0113052 3.89353 4.24467 18.6392
97 1 3 0.0229509 5.69878 3.80044 17.8724
98 1 3 0.058932 6.02248 3.36857 17.3658
63 1 3 0.0178004 4.56605 0.433508 22.2716
64 1 3 0.00794541 4.34394 1.03272 21.8985
67 1 3 0.00699941 6.59376 1.99648 20.8705
68 1 3 -0.00942675 6.32364 1.64618 20.2771
69 1 3 0.0258953 2.66672 3.86089 22.5762
70 1 3 0.0263944 2.29695 3.37199 22.1616
75 1 3 -0.00227338 5.88932 3.33212 20.6445
76 1 3 -0.00418665 5.47632 3.87972 20.9225
77 1 3 -0.00339163 2.69996 0.924753 19.8143
78 1 3 -0.0143266 3.22685 0.47496 19.554
79 1 3 -0.00258656 3.71935 3.15294 20.9393
80 1 3 0.00235508 3.10015 3.04012 20.55
81 1 3 0.00398946 4.97109 4.10322 21.7232
82 1 3 0.0195418 5.34139 3.15932 22.2504
85 1 3 0.0164031 2.63329 0.983561 22.0665
86 1 3 0.0322633 1.953 0.692429 22.0589
89 1 3 0.0301824 7.29174 0.569656 21.3549
90 1 3 0.00412729 6.62444 0.679003 21.054
91 1 3 0.0040934 6.66131 3.90351 20.0958
92 1 3 -0.00365073 6.70331 3.54893 19.4475
94 1 3 1.71449e-05 3.73022 3.69513 19.1071
95 1 3 0.0033207 6.10507 2.92475 20.9963
96 1 3 0.0147026 6.08022 2.58987 21.6557
99 1 3 -0.0048592 3.97364 1.1121 20.8398
100 1 3 -0.00235421 3.40059 0.731634 21.1127
114 1 3 0.0145073 5.30151 3.1998 24.9762
123 1 3 0.0187977 3.99212 3.64342 25.3518
127 1 3 0.0394644 7.16831 3.24937 25.0282
138 1 3 0.0194283 6.06926 4.59727 25.2891
101 1 3 -0.00597448 5.1413 3.8298 26.5967
102 1 3 -0.00150307 4.58453 4.28179 26.4141
103 1 3 0.0759789 4.61291 1.66216 30.1945
104 1 3 0.0194033 4.3908 2.26142 29.8218
105 1 3 0.00944323 2.96646 2.06289 26.221
106 1 3 0.0332727 2.2798 1.88509 26.0099
107 1 3 0.00478157 6.64062 3.22517 28.7934
108 1 3 -0.012699 6.3705 2.87488 28.2
109 1 3 0.109664 2.71358 5.08953 30.4992
110 1 3 0.0428161 2.34381 4.60069 30.0849
111 1 3 -0.00243282 5.46845 4.58583 26.4756
112 1 3 0.000245775 4.94837 5.08724 26.636
113 1 3 0.00205865 5.50788 2.88856 25.6153
115 1 3 -0.013747 5.93619 4.56082 28.5677
116 1 3 -0.0195425 5.52318 0.00352238 28.8454
117 1 3 -0.00338522 2.74682 2.1534 27.7372
118 1 3 -0.00518516 3.27363 1.70361 27.477
119 1 3 -0.0209945 3.76621 4.38164 28.8622
120 1 3 -0.0141077 3.14701 4.26882 28.4729
121 1 3 -0.000515332 5.01796 0.226964 29.6461
122 1 3 0.0845121 5.38825 4.38802 30.1733
124 1 3 0.0110515 3.61545 3.18393 25.7931
125 1 3 0.0364658 2.68007 2.21221 29.9894
126 1 3 0.0537225 1.99977 1.92113 29.9818
128 1 3 0.0185971 6.81454 2.80836 25.5056
129 1 3 0.0584318 7.3386 1.79835 29.2778
130 1 3 0.0050795 6.6713 1.90765 28.9773
131 1 3 0.00550533 6.70817 0.0273112 28.0187
132 1 3 0.0100511 6.75017 4.77757 27.3704
133 1 3 0.00724153 3.94039 0.368421 26.5621
134 1 3 0.00195691 3.77708 4.92378 27.03
135 1 3 -0.00552899 6.15193 4.15345 28.9193
136 1 3 0.0351179 6.12708 3.81857 29.5786
137 1 3 0.0132277 5.74564 5.02909 25.7953
139 1 3 -0.0199929 4.0205 2.34075 28.763
140 1 3 -0.0305869 3.44746 1.96033 29.0356
ITEM: TIMESTEP
100
ITEM: NUMBER OF ATOMS
140
ITEM: BOX BOUNDS pp pp pp
0.0000000000000000e+00 8.8419000000000008e+00
0.0000000000000000e+00 5.1048999999999998e+00
0.0000000000000000e+00 3.1699300000000001e+01
ITEM: ATOMS id mol type q x y z
3 1 1 0.388566 8.83544 5.10478 2.99597
4 1 1 0.398546 4.42416 2.5513 3.00795
7 1 1 0.104174 5.91674 5.10038 1.33814
8 1 1 0.174988 1.46053 2.55699 1.33421
9 1 1 0.413317 2.94778 0.000106189 3.57388
10 1 1 0.382323 7.36753 2.55214 3.57435
13 1 1 0.393254 5.89459 3.65645e-05 5.28388
14 1 1 0.399588 1.47371 2.55245 5.28379
15 1 1 0.386703 5.14853e-05 1.91473e-05 5.9307
16 1 1 0.38862 4.42097 2.55244 5.93087
25 1 2 -0.342901 1.52098 4.3977 2.06331
26 1 2 -0.690038 5.94069 1.81876 2.04135
29 1 2 -0.398335 4.29102 4.23745 2.05216
30 1 2 -0.719623 8.69524 1.67105 2.06066
33 1 2 -0.45923 7.44714 4.15178 2.04381
34 1 2 -0.351173 3.05524 1.59235 2.05276
39 1 2 -0.250525 5.79532 3.345 4.44965
40 1 2 -0.236714 1.37456 0.792689 4.44984
43 1 2 -0.244262 3.04784 3.34648 4.44904
44 1 2 -0.258723 7.46784 0.793667 4.45029
47 1 2 -0.24277 8.84062 3.51845 4.44956
48 1 2 -0.240502 4.42045 0.965666 4.44968
11 1 1 0.372713 2.94737 5.1049 7.60325
12 1 1 0.37503 7.36812 2.5525 7.60338
17 1 1 0.374112 5.89456 5.10489 8.25013
18 1 1 0.371758 1.47373 2.55244 8.25007
19 1 1 0.407396 5.89134 0.000415127 12.2784
20 1 1 0.400427 1.47707 2.55225 12.2806
21 1 1 0.385033 6.4565e-06 5.10489 9.9221
22 1 1 0.384667 4.42087 2.55244 9.92235
23 1 1 0.394565 2.94728 1.9436e-05 10.5698
24 1 1 0.393134 7.36818 2.55243 10.5695
37 1 2 -0.281256 4.52179 4.31183 6.76996
38 1 2 -0.280602 0.100737 1.75925 6.77049
41 1 2 -0.283355 7.26812 4.31252 6.77004
42 1 2 -0.281429 2.84674 1.75996 6.77027
45 1 2 -0.281841 1.47307 4.13798 6.77039
46 1 2 -0.281981 5.89446 1.58538 6.77007
49 1 2 -0.247725 7.46735 4.31112 11.4028
50 1 2 -0.24772 3.0464 1.7603 11.4041
51 1 2 -0.282317 8.74134 3.3455 9.08302
52 1 2 -0.286258 4.32005 0.793078 9.08332
53 1 2 -0.249081 1.37478 4.31134 11.4016
54 1 2 -0.247009 5.79405 1.75816 11.405
55 1 2 -0.283148 5.99505 3.34487 9.08337
56 1 2 -0.285935 1.57387 0.792413 9.08293
57 1 2 -0.246099 4.42051 4.13932 11.4027
58 1 2 -0.248844 0.00165611 1.58695 11.4038
59 1 2 -0.285753 2.94742 3.51942 9.08309
60 1 2 -0.280879 7.36886 0.966959 9.08317
1 1 1 0.396337 0.0172789 0.000523571 12.8522
2 1 1 0.400734 4.40382 2.55223 12.8623
5 1 1 0.193209 2.93705 5.09812 14.4981
6 1 1 0.15021 7.38137 2.54506 14.53
27 1 2 -0.399879 2.90712 3.30212 13.8086
28 1 2 -0.443002 7.32074 0.690956 13.7623
31 1 2 -0.390993 0.164635 3.44604 13.7752
32 1 2 -0.366515 4.52953 0.868902 13.8141
35 1 2 -0.346222 5.77426 3.52662 13.7863
36 1 2 -0.391041 1.40922 0.941252 13.8113
61 1 3 0.00842971 4.77776 2.02088 19.5509
62 1 3 -0.00535796 4.17754 1.68563 18.8049
65 1 3 0.0364662 1.61838 0.128035 16.797
66 1 3 -0.00991014 1.10896 0.35851 17.2426
71 1 3 -0.0251401 7.33932 0.460565 17.6616
72 1 3 -0.0611134 6.8065 0.0241525 17.145
73 1 3 0.22056 5.52861 0.571351 15.6665
74 1 3 0.0436508 4.9881 0.328412 16.3454
83 1 3 0.31842 1.7935 2.92742 15.324
84 1 3 0.15887 1.64435 2.34253 15.6099
87 1 3 -0.0152927 8.77868 0.957165 16.9759
88 1 3 -0.0176319 8.77513 1.23773 17.7131
93 1 3 -0.0171347 2.12926 3.08516 18.1688
97 1 3 0.241571 7.75315 0.534553 15.4367
98 1 3 0.202115 7.01643 0.269641 15.4639
63 1 3 0.00838548 5.21294 0.938514 23.1096
64 1 3 0.0089145 5.36444 0.287366 23.4709
67 1 3 0.00302719 7.22063 2.23568 19.3659
68 1 3 0.0034918 7.88325 2.21773 19.6127
69 1 3 0.0117502 1.3824 3.91528 22.0628
70 1 3 0.00882259 1.10487 3.28666 22.4095
75 1 3 0.00382114 4.61827 3.87471 19.3086
76 1 3 0.00409378 3.89836 4.09576 19.5132
77 1 3 0.0059327 1.09886 2.14522 20.8982
78 1 3 0.0143433 0.190347 2.01335 20.9442
79 1 3 0.0136931 2.77101 2.49948 21.2808
80 1 3 0.00713054 2.50971 2.90235 20.7252
81 1 3 0.00969467 3.63361 4.41505 23.1732
82 1 3 0.006277 3.48094 5.01718 24.0186
85 1 3 0.00831425 1.10449 1.01818 23.1019
86 1 3 0.00790067 1.86792 1.22907 22.9545
89 1 3 0.017119 6.99778 3.69003 22.2492
90 1 3 0.0127379 7.75482 3.87618 22.4677
91 1 3 0.00761273 1.65302 4.44375 20.4342
92 1 3 0.00302357 1.00967 4.79158 19.9557
94 1 3 -0.0309399 2.21017 3.36403 17.4734
95 1 3 0.0118035 6.96455 2.37341 22.7259
96 1 3 0.00667759 6.82786 1.75814 23.3671
99 1 3 0.0173718 4.64137 0.591185 21.5678
100 1 3 0.0120646 4.10841 0.87897 21.8549
114 1 3 0.0129367 4.37927 2.83736 24.953
123 1 3 0.00146262 1.95247 4.07966 24.0491
127 1 3 0.00314294 8.41083 2.50193 24.724
138 1 3 0.00611124 0.126691 4.27179 24.5072
101 1 3 0.00156771 4.85801 3.38433 27.5625
102 1 3 0.0173928 4.23997 2.96779 26.8595
103 1 3 0.270064 5.11727 3.17676 0.629177
104 1 3 0.148679 4.54883 2.84535 0.340342
105 1 3 0.00447777 1.70627 1.3323 24.4902
106 1 3 0.0129962 1.27523 1.59341 25.0564
107 1 3 0.0123097 7.48664 3.38854 26.5977
108 1 3 0.0141393 8.11367 3.11533 26.2335
109 1 3 0.0985496 1.53356 4.93128 31.1373
110 1 3 -0.00197546 1.22263 4.5295 30.5505
111 1 3 0.016022 7.46308 1.46718 25.6052
112 1 3 0.0127081 6.87334 1.24355 25.0321
113 1 3 0.0165011 5.15395 3.14926 25.4953
115 1 3 0.00904561 4.69899 5.08764 27.2642
116 1 3 0.00918663 3.99327 0.243537 27.4626
117 1 3 0.00231563 1.04148 3.39425 28.6192
118 1 3 -0.008651 0.150657 3.3163 28.5471
119 1 3 -0.0113833 2.84966 3.82513 29.2256
120 1 3 -0.00180911 2.56641 4.16965 28.6515
121 1 3 0.136971 3.7372 0.816199 31.5133
122 1 3 0.0562895 2.87111 1.0988 31.1707
124 1 3 0.0029127 2.01162 3.51011 23.8113
125 1 3 -0.00532025 2.11763 2.2758 29.5482
126 1 3 -0.00423901 1.94474 2.08059 30.2318
128 1 3 0.00629013 0.232161 2.87653 24.9125
129 1 3 -0.0323577 7.04859 4.93062 30.2016
130 1 3 -0.0264095 7.80129 0.0109543 30.4284
131 1 3 -0.00505168 1.70278 0.56073 28.3993
132 1 3 0.00997937 1.06693 0.902837 27.9242
133 1 3 0.0185525 2.1764 4.31793 26.097
134 1 3 0.0109398 2.2689 4.62107 25.4312
135 1 3 0.539192 8.4405 1.47395 1.07244
136 1 3 0.665548 6.98188 1.7274 1.49289
137 1 3 0.0135604 7.87558 4.46408 24.8958
139 1 3 -0.0337348 4.7507 1.86974 29.5125
140 1 3 -0.0362009 4.16421 2.15127 29.7813
ITEM: TIMESTEP
200
ITEM: NUMBER OF ATOMS
140
ITEM: BOX BOUNDS pp pp pp
0.0000000000000000e+00 8.8419000000000008e+00
0.0000000000000000e+00 5.1048999999999998e+00
0.0000000000000000e+00 3.1699300000000001e+01
ITEM: ATOMS id mol type q x y z
3 1 1 0.399199 0.0116419 5.08006 3.16295
4 1 1 0.347815 4.33842 2.59973 3.09882
7 1 1 0.140306 5.94039 0.019845 1.46185
8 1 1 0.225944 1.45373 2.67715 1.51167
9 1 1 0.408764 2.93743 5.10263 3.54047
10 1 1 0.335491 7.40401 2.63066 3.60531
13 1 1 0.267848 5.90796 4.99726 5.30668
14 1 1 0.400949 1.47445 2.55291 5.21485
15 1 1 0.391455 8.84149 0.000459799 6.00746
16 1 1 0.377694 4.40739 2.56975 6.04222
25 1 2 -0.371316 1.48901 4.54659 1.89505
26 1 2 -0.626871 6.00006 1.8514 1.7835
29 1 2 -0.422152 4.18511 4.15231 1.98955
30 1 2 -0.576728 8.76301 1.39777 1.65961
33 1 2 -0.449924 7.59456 4.1534 1.8278
34 1 2 -0.390914 3.23666 1.61627 1.95145
39 1 2 -0.380552 5.83554 3.33985 4.43742
40 1 2 -0.244269 1.40468 0.79662 4.47081
43 1 2 -0.261329 3.00833 3.36774 4.43277
44 1 2 -0.404225 7.46641 0.78631 4.45784
47 1 2 -0.275275 0.00164798 3.4638 4.41984
48 1 2 -0.762085 4.47051 0.949828 4.44316
11 1 1 0.381459 2.94645 5.10412 7.53406
12 1 1 0.376809 7.36882 2.55287 7.53573
17 1 1 0.377051 5.89483 0.000524517 8.32018
18 1 1 0.379186 1.47375 2.55225 8.31883
19 1 1 0.401342 5.88031 0.00493112 12.3072
20 1 1 0.390273 1.48925 2.55302 12.2339
21 1 1 0.385389 0.000561068 0.000132647 9.84146
22 1 1 0.385888 4.42037 2.55189 9.84639
23 1 1 0.393233 2.94777 0.000485042 10.6397
24 1 1 0.396988 7.36726 2.55165 10.6363
37 1 2 -0.289634 4.5121 4.29099 6.78936
38 1 2 -0.277536 0.0857867 1.7514 6.77718
41 1 2 -0.289323 7.27678 4.30084 6.78106
42 1 2 -0.271518 2.86033 1.7556 6.78073
45 1 2 -0.278376 1.47136 4.15308 6.77524
46 1 2 -0.318721 5.89422 1.61334 6.78255
49 1 2 -0.251022 7.4359 4.28124 11.4044
50 1 2 -0.269056 3.01545 1.74401 11.4194
51 1 2 -0.280028 8.75541 3.35492 9.07855
52 1 2 -0.280467 4.33337 0.802218 9.07792
53 1 2 -0.267863 1.41213 4.29691 11.4044
54 1 2 -0.254541 5.81669 1.74406 11.4265
55 1 2 -0.281539 5.97875 3.35217 9.07858
56 1 2 -0.279339 1.5597 0.800001 9.07881
57 1 2 -0.254725 4.41503 4.17515 11.4146
58 1 2 -0.261836 0.0131214 1.62473 11.4154
59 1 2 -0.28016 2.94959 3.50272 9.07745
60 1 2 -0.278485 7.37 0.950216 9.07982
1 1 1 0.416297 0.0356399 0.00675517 12.7584
2 1 1 0.414393 4.39652 2.55154 12.8161
5 1 1 0.192551 2.9339 0.00517249 14.2563
6 1 1 0.201004 7.25432 2.59432 14.3307
27 1 2 -0.584264 2.99493 3.16064 13.8746
28 1 2 -0.364401 7.39807 0.582411 13.6571
31 1 2 -0.375019 0.174717 3.61215 13.7938
32 1 2 -0.385648 4.64453 1.02377 13.9268
35 1 2 -0.377277 5.60902 3.58176 13.926
36 1 2 -0.420717 1.23072 0.946904 13.9585
61 1 3 0.00427287 3.44155 2.21431 19.9106
62 1 3 -0.000550796 2.92278 2.20528 19.3134
65 1 3 -0.0203431 2.00268 3.79667 18.213
66 1 3 -0.0313477 1.85171 4.57632 17.8651
71 1 3 -0.00502901 8.15394 4.09213 18.2804
72 1 3 -0.0226418 7.72472 4.61832 17.9512
73 1 3 0.187412 6.00663 4.97252 15.7444
74 1 3 0.25327 6.72676 0.0888765 15.5583
83 1 3 0.137575 2.29347 2.10135 15.5055
84 1 3 0.524721 2.64923 2.81795 14.9843
87 1 3 0.0287793 8.62385 1.57234 17.1092
88 1 3 0.00136176 8.16866 1.0927 17.2282
93 1 3 -0.0186177 2.19519 1.51206 17.514
97 1 3 0.107306 1.19284 3.95174 15.8691
98 1 3 0.111636 1.25005 4.59516 15.999
63 1 3 0.0132969 6.18807 4.78328 24.4065
64 1 3 0.0185235 6.4761 0.279078 24.8313
67 1 3 0.00166763 8.18143 2.73341 19.0695
68 1 3 -0.00981582 7.93781 2.33337 18.3398
69 1 3 0.0131843 7.25646 0.389416 21.3981
70 1 3 0.0111922 7.8713 0.474746 21.0017
75 1 3 0.00324168 3.84728 0.692344 17.7023
76 1 3 0.00178352 3.04699 0.55735 17.5745
77 1 3 0.0108314 7.15275 2.8704 21.5852
78 1 3 0.00988678 7.67014 2.55083 21.473
79 1 3 0.00664141 2.94526 1.07519 20.889
80 1 3 0.0102144 3.03041 1.57711 21.4474
81 1 3 0.00922575 3.16527 0.0196364 23.9532
82 1 3 0.0112859 2.80005 4.25456 24.5937
85 1 3 0.00975813 1.24401 1.549 21.279
86 1 3 0.0114375 1.60114 2.14051 21.7939
89 1 3 0.00903418 6.34204 4.0488 22.4492
90 1 3 0.0116728 5.6917 3.71106 22.6613
91 1 3 0.00702375 3.87137 4.24048 20.573
92 1 3 0.00411213 3.604 4.97563 20.3863
94 1 3 -0.043029 2.7066 2.09117 17.2126
95 1 3 0.00581736 7.54563 1.6625 22.9368
96 1 3 0.0104456 7.62258 1.77212 23.7091
99 1 3 0.008201 4.42893 4.80183 22.3559
100 1 3 0.0105947 4.0927 0.393933 22.317
114 1 3 0.0125857 3.87254 4.79153 26.1309
123 1 3 0.0110111 2.8876 3.71291 22.3111
127 1 3 0.00990661 0.769584 2.35012 23.6818
138 1 3 0.0163834 8.3856 4.68931 25.4993
101 1 3 -0.00491162 3.90928 3.26162 28.2297
102 1 3 0.00184586 3.52742 3.14128 27.7177
103 1 3 0.118174 4.35864 3.04208 0.0342646
104 1 3 0.277984 4.47733 2.1609 0.303445
105 1 3 -0.00203475 1.78177 0.419618 27.2087
106 1 3 0.00584961 1.72906 1.05696 26.8942
107 1 3 0.0188213 8.03285 2.64261 26.1297
108 1 3 0.0063046 8.64572 2.62453 26.6305
109 1 3 0.201837 8.69282 5.07312 31.6468
110 1 3 0.04495 0.271373 4.6062 31.2089
111 1 3 0.00900705 0.496392 0.418957 23.4213
112 1 3 0.0100519 1.17205 0.286093 23.5658
113 1 3 0.0169763 4.63784 4.63479 26.2832
115 1 3 0.0184841 4.16642 2.23808 25.6508
116 1 3 0.0137485 3.52375 2.26164 25.1793
117 1 3 -0.00811154 6.86009 2.05581 28.9927
118 1 3 -0.0360521 7.22232 2.31523 29.4749
119 1 3 -0.0657313 3.24898 3.46665 30.3341
120 1 3 -0.011823 2.61237 3.09365 30.4432
121 1 3 0.260151 2.68173 4.58919 0.135758
122 1 3 0.0697265 3.57359 4.48884 31.4833
124 1 3 0.0116452 2.71587 4.11019 21.5435
125 1 3 0.0305614 1.41222 1.61301 30.4704
126 1 3 -0.0217119 0.707504 1.78459 30.0846
128 1 3 0.0079842 0.411281 2.41142 23.1019
129 1 3 0.103788 7.18951 2.80608 31.583
130 1 3 -0.0134259 6.63802 2.56483 31.1821
131 1 3 -0.00410474 3.20377 0.937761 27.7997
132 1 3 0.000710239 3.51806 0.417605 27.6477
133 1 3 0.00248001 2.17803 3.01988 27.0039
134 1 3 0.0084478 2.26607 2.57232 26.4616
135 1 3 0.660447 7.47182 1.55233 1.08704
136 1 3 1.07416 5.40581 0.954171 4.17449
137 1 3 0.0116901 0.335001 4.23349 25.7349
139 1 3 -0.0198335 5.3359 0.715507 29.3584
140 1 3 -0.0121924 4.94847 1.1946 29.042
ITEM: TIMESTEP
300
ITEM: NUMBER OF ATOMS
140
ITEM: BOX BOUNDS pp pp pp
0.0000000000000000e+00 8.8419000000000008e+00
0.0000000000000000e+00 5.1048999999999998e+00
0.0000000000000000e+00 3.1699300000000001e+01
ITEM: ATOMS id mol type q x y z
3 1 1 0.303143 0.112498 5.05415 3.41247
4 1 1 0.408155 4.19969 2.75821 3.08042
7 1 1 0.250298 5.86543 5.03614 1.55329
8 1 1 0.213474 1.49775 2.772 1.70886
9 1 1 0.389812 2.89406 0.0183478 3.45284
10 1 1 0.358918 7.37567 2.72502 3.66756
13 1 1 0.391942 5.96515 4.73305 5.53657
14 1 1 0.395894 1.46943 2.55736 5.14468
15 1 1 0.373512 0.00746148 5.0923 6.13631
16 1 1 0.383774 4.35688 2.59356 6.24697
25 1 2 -0.575748 1.59316 4.50503 1.80266
26 1 2 -0.491216 6.03023 1.90876 1.83947
29 1 2 -0.368061 4.30017 4.22403 2.06168
30 1 2 -0.897946 8.72955 1.55495 1.01271
33 1 2 -0.94993 7.51869 4.10353 1.74462
34 1 2 -0.409434 3.17789 1.63802 1.93065
39 1 2 -0.254122 5.84574 3.31035 4.33339
40 1 2 -0.292377 1.40314 0.78798 4.44242
43 1 2 -0.274901 3.01457 3.37057 4.42931
44 1 2 -0.262941 7.50974 0.782478 4.31962
47 1 2 -0.349872 8.84034 3.48471 4.34455
48 1 2 -0.192029 4.5617 0.978841 4.45347
11 1 1 0.377303 2.94996 5.10287 7.47425
12 1 1 0.380068 7.36683 2.56549 7.47693
17 1 1 0.376226 5.89539 5.10333 8.39499
18 1 1 0.374991 1.47563 2.55073 8.37642
19 1 1 0.394863 5.83799 0.00676142 12.3463
20 1 1 0.398445 1.50119 2.56399 12.1739
21 1 1 0.38026 0.00363038 0.000998875 9.73268
22 1 1 0.377816 4.41815 2.55016 9.75388
23 1 1 0.395225 2.94315 0.00156995 10.7166
24 1 1 0.394815 7.37118 2.5461 10.6836
37 1 2 -0.31125 4.54918 4.27079 6.84597
38 1 2 -0.283402 0.132182 1.78093 6.77699
41 1 2 -0.319101 7.23583 4.31797 6.80423
42 1 2 -0.28632 2.80365 1.79305 6.7864
45 1 2 -0.279857 1.46304 4.09398 6.77365
46 1 2 -0.275949 5.888 1.56863 6.8097
49 1 2 -0.253466 7.44057 4.26897 11.3704
50 1 2 -0.288315 3.0392 1.77109 11.4331
51 1 2 -0.280599 8.70854 3.32953 9.08046
52 1 2 -0.283634 4.28377 0.777754 9.08674
53 1 2 -0.282322 1.39873 4.31368 11.3967
54 1 2 -0.267863 5.76436 1.75919 11.4397
55 1 2 -0.281751 6.02333 3.32045 9.09143
56 1 2 -0.284312 1.60712 0.769533 9.083
57 1 2 -0.276688 4.42486 4.14578 11.423
58 1 2 -0.273362 0.0480204 1.60594 11.4171
59 1 2 -0.283197 2.95061 3.55687 9.08687
60 1 2 -0.280873 7.37364 1.00661 9.08896
1 1 1 0.402459 0.0733552 0.0363543 12.5895
2 1 1 0.387713 4.36221 2.56451 12.655
5 1 1 0.304359 3.03531 0.00161756 13.8888
6 1 1 0.179347 7.18362 2.61113 14.2362
27 1 2 -0.345557 2.86513 3.26491 14.0354
28 1 2 -0.412253 7.34495 0.54427 13.5211
31 1 2 -0.333325 0.338968 3.56169 13.7302
32 1 2 -0.402453 4.50487 0.883252 14.028
35 1 2 -0.406664 5.6099 3.62573 13.9702
36 1 2 -0.344616 1.2692 1.03539 14.0601
61 1 3 -0.022708 3.88299 2.71171 19.0248
62 1 3 -0.0111864 4.55901 2.88258 19.3322
65 1 3 0.00296118 2.2216 4.84095 19.8939
66 1 3 -0.00934332 2.29733 0.0658057 19.2733
71 1 3 0.00411562 8.57083 0.178494 19.3548
72 1 3 -0.00497144 8.37352 4.7147 19.1471
73 1 3 0.330968 6.59474 0.0494228 15.1845
74 1 3 0.182955 7.46441 0.143956 15.4438
83 1 3 0.100096 4.09302 2.87167 16.5779
84 1 3 0.0284913 3.52882 2.40895 17.0285
87 1 3 -0.0479351 7.98812 0.609297 17.1656
88 1 3 0.041441 8.76078 0.530053 16.7744
93 1 3 0.00262467 0.48285 2.01536 18.0307
97 1 3 0.0127674 1.30403 3.36694 16.8432
98 1 3 0.241427 0.976908 3.87267 15.989
63 1 3 0.00970406 6.72445 4.84735 26.9147
64 1 3 0.0116647 6.03432 4.65928 26.9746
67 1 3 -0.0102858 7.68146 1.64329 18.8338
68 1 3 0.00302482 7.99738 1.8141 19.3945
69 1 3 -0.0158517 5.70891 0.973513 19.1534
70 1 3 -0.00767794 5.08707 1.35024 19.3552
75 1 3 0.117893 4.57491 4.75789 16.1909
76 1 3 0.0784842 3.8348 4.6984 16.4125
77 1 3 0.0154939 7.02459 1.98233 20.6605
78 1 3 0.0184886 6.77886 2.60142 20.944
79 1 3 0.00944585 3.3766 1.59583 20.97
80 1 3 0.0110093 2.66795 1.16845 21.0097
81 1 3 0.014257 1.83107 3.97947 25.9937
82 1 3 0.0159808 2.19965 3.52237 25.7578
85 1 3 0.000360826 1.73282 2.98389 19.9013
86 1 3 0.0128947 1.30768 3.24117 20.2541
89 1 3 0.00648283 5.2105 2.73818 20.7985
90 1 3 0.01042 4.95956 2.51747 21.4927
91 1 3 -0.0113375 6.749 3.22151 19.1063
92 1 3 -0.0112249 6.51266 3.93028 19.1655
94 1 3 -0.0167481 0.023677 2.77027 18.2453
95 1 3 0.0191185 7.36867 1.21145 23.9541
96 1 3 0.0184553 7.61312 1.09496 24.6876
99 1 3 0.0198332 5.7729 0.672178 22.8414
100 1 3 0.0155106 5.52575 1.04866 22.3816
114 1 3 0.0176591 3.75678 0.640293 25.4138
123 1 3 0.00544022 4.05323 3.75197 20.4649
127 1 3 0.0231182 0.0794115 3.14534 23.7986
138 1 3 0.0142695 8.55446 4.34418 25.9145
101 1 3 -0.0109064 5.05271 3.3942 28.6123
102 1 3 0.00914219 4.65851 3.0099 27.8276
103 1 3 0.241274 4.40222 2.22422 0.0566883
104 1 3 0.0483084 4.44565 1.66393 31.3494
105 1 3 -0.03501 0.41112 4.91347 29.4684
106 1 3 -0.0294686 1.04671 0.393329 29.6613
107 1 3 0.00810376 8.14763 0.492751 27.1015
108 1 3 0.00651611 8.02946 1.15701 27.4597
109 1 3 -0.000464507 8.63861 4.64971 31.2626
110 1 3 0.159655 0.411733 4.96138 31.6566
111 1 3 0.0115852 2.82941 4.94575 21.9709
112 1 3 0.0202146 1.97106 4.94556 21.8798
113 1 3 0.0178598 3.333 1.16976 25.8875
115 1 3 0.0193403 4.93591 3.0604 24.6833
116 1 3 0.0178365 4.49587 2.89472 24.0324
117 1 3 0.0152317 5.12209 4.50745 30.3323
118 1 3 0.00334978 5.794 4.13445 30.077
119 1 3 -0.00436981 2.23895 1.36132 29.5637
120 1 3 -0.0472743 2.69337 1.1256 30.2295
121 1 3 0.0990131 2.97971 0.473936 31.6354
122 1 3 0.338136 2.38199 0.0938544 0.340444
124 1 3 0.0112532 3.90388 3.80526 21.152
125 1 3 0.181904 8.46103 1.74293 31.2047
126 1 3 0.0117878 8.52927 0.924337 30.814
128 1 3 0.0188175 0.429048 3.8885 23.8937
129 1 3 -0.00579395 6.73145 1.26156 30.8215
130 1 3 -0.0542976 7.14473 1.53153 30.3959
131 1 3 -0.0072674 4.1874 0.410017 28.8399
132 1 3 -0.0107075 3.9232 1.2098 28.9711
133 1 3 -0.0053322 0.339942 2.33991 28.1145
134 1 3 0.00965911 1.10831 2.36126 27.8138
135 1 3 0.77626 7.54783 1.79105 1.00613
136 1 3 0.994519 8.38096 4.09904 1.63176
137 1 3 0.0129061 0.291963 4.65049 26.1759
139 1 3 -0.00612027 6.28936 1.71482 28.4075
140 1 3 -0.000349981 6.78952 1.77345 28.0086
ITEM: TIMESTEP
400
ITEM: NUMBER OF ATOMS
140
ITEM: BOX BOUNDS pp pp pp
0.0000000000000000e+00 8.8419000000000008e+00
0.0000000000000000e+00 5.1048999999999998e+00
0.0000000000000000e+00 3.1699300000000001e+01
ITEM: ATOMS id mol type q x y z
3 1 1 0.35537 0.237411 5.05215 3.65812
4 1 1 0.389225 4.24298 2.757 3.1143
7 1 1 0.308608 5.78107 4.95107 1.70822
8 1 1 0.215717 1.63432 2.78545 1.97515
9 1 1 0.377718 2.88081 0.140957 3.3329
10 1 1 0.367639 7.22715 2.74704 3.85774
13 1 1 0.394061 6.06208 4.6077 5.70026
14 1 1 0.38722 1.44845 2.55697 5.04748
15 1 1 0.366753 0.028861 5.06316 6.30997
16 1 1 0.381878 4.27926 2.53215 6.41303
25 1 2 -0.525087 1.55485 4.30199 1.85643
26 1 2 -0.335282 5.91201 1.87342 2.0266
29 1 2 -0.390038 4.38528 4.37376 2.06057
30 1 2 -1.28856 8.52564 1.97106 0.515071
33 1 2 -0.940382 7.63948 4.11577 1.62764
34 1 2 -0.456724 2.86022 1.77393 1.99482
39 1 2 -0.278917 5.80898 3.28223 4.31852
40 1 2 -0.337901 1.43114 0.801406 4.37315
43 1 2 -0.251052 3.10342 3.37903 4.54652
44 1 2 -0.260618 7.54947 0.788983 4.27404
47 1 2 -0.365013 8.80251 3.5556 4.34557
48 1 2 -0.177596 4.46258 0.984996 4.59938
11 1 1 0.378672 2.9626 0.00408733 7.44382
12 1 1 0.372845 7.35439 2.6027 7.44015
17 1 1 0.372126 5.89775 5.09516 8.49079
18 1 1 0.37808 1.48113 2.55003 8.39944
19 1 1 0.391867 5.76859 0.00340526 12.3924
20 1 1 0.342312 1.5326 2.57889 12.2204
21 1 1 0.381877 0.0113717 0.00192558 9.59466
22 1 1 0.38344 4.41101 2.54807 9.63175
23 1 1 0.378682 2.93603 0.00302472 10.831
24 1 1 0.405193 7.38563 2.52774 10.7089
37 1 2 -0.313731 4.54972 4.2339 6.90966
38 1 2 -0.280761 0.167512 1.78835 6.74959
41 1 2 -0.356865 7.24195 4.30535 6.81647
42 1 2 -0.287227 2.7415 1.81142 6.7817
45 1 2 -0.28117 1.44108 4.05098 6.76725
46 1 2 -0.280346 5.88283 1.47178 6.81941
49 1 2 -0.233657 7.4553 4.2814 11.2885
50 1 2 -0.310219 3.05965 1.89237 11.3528
51 1 2 -0.27257 8.67501 3.31076 9.07173
52 1 2 -0.278024 4.23467 0.761039 9.111
53 1 2 -0.295506 1.32134 4.32676 11.2833
54 1 2 -0.245969 5.6754 1.74496 11.4026
55 1 2 -0.278594 6.05723 3.28222 9.11666
56 1 2 -0.2738 1.64877 0.741493 9.07855
57 1 2 -0.276217 4.48721 4.07543 11.3217
58 1 2 -0.270679 0.10261 1.56371 11.3649
59 1 2 -0.269421 2.9451 3.60338 9.11278
60 1 2 -0.278827 7.3862 1.05609 9.09711
1 1 1 0.388304 0.129557 0.074909 12.4455
2 1 1 0.371882 4.30072 2.57037 12.5498
5 1 1 0.361404 3.03602 0.0127113 13.4961
6 1 1 0.238436 7.22353 2.5986 14.1415
27 1 2 -0.792634 2.79733 3.47171 14.0255
28 1 2 -0.326119 7.28427 0.794489 13.3482
31 1 2 -0.484368 0.261774 3.45209 13.6832
32 1 2 -0.455716 4.28104 0.75635 14.0262
35 1 2 -0.346959 5.78739 3.47123 13.9032
36 1 2 -0.591616 1.46153 1.06332 14.0261
61 1 3 -0.00525527 5.62451 4.88264 19.2298
62 1 3 0.00147052 5.56473 3.89152 19.2589
65 1 3 0.00175412 2.1333 1.36534 19.4295
66 1 3 -0.0195895 2.46231 2.00438 18.9243
71 1 3 0.0081843 0.134721 4.88675 20.504
72 1 3 -0.00286275 0.606148 0.13168 19.8364
73 1 3 -0.00475864 8.38433 0.102482 16.2866
74 1 3 0.269923 8.45211 0.283414 15.4963
83 1 3 0.143807 4.32517 1.73108 16.024
84 1 3 0.186067 3.73212 1.20355 15.853
87 1 3 -0.0191116 1.40341 0.501164 17.9358
88 1 3 -0.0350293 0.825426 0.0939765 17.5323
93 1 3 0.0509196 8.57409 3.29759 16.1579
97 1 3 0.246526 1.3577 3.79308 15.2667
98 1 3 0.853606 2.06175 2.72042 14.349
63 1 3 0.0168832 5.32785 4.93999 25.6441
64 1 3 0.0129759 5.87943 0.179169 25.9615
67 1 3 0.0115865 7.29894 0.156716 20.1834
68 1 3 -0.0052516 7.21265 4.91624 19.4322
69 1 3 0.0391575 4.78729 0.329639 16.8223
70 1 3 0.00774644 5.04302 4.90961 17.4251
75 1 3 -0.0112583 1.96549 4.33703 16.7497
76 1 3 -0.024368 2.42236 3.83139 17.0785
77 1 3 0.0156281 0.140884 2.22993 21.3887
78 1 3 0.0141086 8.42454 1.51648 21.6024
79 1 3 0.0103116 3.10687 2.866 20.8119
80 1 3 0.0175576 3.72023 2.7098 21.1064
81 1 3 -2.90254e-05 1.93208 2.5696 27.8419
82 1 3 0.00634743 2.43376 1.67567 27.7693
85 1 3 0.00855181 1.53933 3.37203 20.4223
86 1 3 -0.0060122 1.37033 3.06381 19.665
89 1 3 0.00529713 5.20467 1.44433 19.8511
90 1 3 -0.00142662 4.55321 0.887149 19.8354
91 1 3 0.0491242 6.68916 3.20136 17.1452
92 1 3 -0.0134302 6.73363 3.55674 17.92
94 1 3 -0.00773208 8.47394 2.77179 16.627
95 1 3 0.0115516 7.07574 0.766079 24.9912
96 1 3 0.0108547 7.60052 0.343739 25.6636
99 1 3 0.01994 7.25269 2.26959 22.846
100 1 3 0.0145876 7.23229 1.53277 23.2593
114 1 3 0.0173295 1.95287 2.42213 25.1785
123 1 3 0.00485597 3.96976 4.44214 20.7003
127 1 3 0.0132536 8.79857 4.70998 23.6044
138 1 3 0.015398 0.251274 3.72053 25.9342
101 1 3 -0.0106613 3.7204 4.20183 29.0956
102 1 3 -0.0259512 3.25206 3.62575 29.1752
103 1 3 0.126587 4.54443 1.55292 31.5398
104 1 3 0.217662 4.33778 2.27861 0.054349
105 1 3 -0.00557309 8.49865 3.72296 28.7499
106 1 3 -0.00965522 0.135032 4.02615 28.3451
107 1 3 0.00979522 0.439985 0.145884 27.392
108 1 3 0.00768282 8.48353 0.502263 27.3572
109 1 3 0.0877881 0.928076 4.24259 31.3035
110 1 3 0.0466777 1.44976 3.97463 31.1363
111 1 3 0.0246055 2.48637 4.82146 22.7865
112 1 3 0.0173638 1.95943 4.73178 22.1752
113 1 3 0.0226621 2.38337 2.02655 24.8423
115 1 3 0.0152528 5.08974 3.0094 25.4869
116 1 3 0.0222442 4.7095 2.92456 24.8135
117 1 3 0.002553 4.13682 4.99719 30.6116
118 1 3 0.0761545 3.83664 4.38858 30.936