ITEM: TIMESTEP
0
ITEM: NUMBER OF ATOMS
375
ITEM: BOX BOUNDS xy xz yz pp pp pp
-7.6378500000000003e+00 1.5275700000000001e+01 -7.6378500000000003e+00
0.0000000000000000e+00 1.3229144260600000e+01 0.0000000000000000e+00
0.0000000000000000e+00 3.0182300000000001e+01 0.0000000000000000e+00
ITEM: ATOMS id type x y z
1 2 2.22045e-16 2.93978 6.8873
2 2 0 0 8.59079
3 2 2.22045e-16 2.93978 10.8865
4 2 2.54592 1.46989 9.18296
5 2 0 0 11.4786
6 2 2.54592 1.46989 13.1824
7 2 0 0 1.70379
8 2 2.22045e-16 2.93978 0
9 2 2.54592 1.46989 2.29567
10 2 2.22045e-16 2.93978 3.99946
11 2 2.54592 1.46989 6.29512
12 2 0 0 4.59133
13 4 1.76839 3.06294 10.0347
14 4 1.55507 0 10.0347
15 4 3.32346 0.123163 7.73904
16 4 0.990858 1.46989 7.73904
17 4 3.32346 2.81662 7.73904
18 4 14.4982 1.34673 10.0347
19 4 1.76839 0.123163 0.851745
20 4 4.10099 1.46989 0.851745
21 4 0.777533 1.59305 12.3304
22 4 -1.55507 2.93978 12.3304
23 4 0.777533 4.28651 12.3304
24 4 1.76839 2.81662 0.851745
25 4 -0.777533 1.59305 5.44338
26 4 1.55507 2.93978 5.44338
27 4 -1.76839 3.06294 3.14771
28 4 3.53678 0 3.14771
29 4 0.777533 1.34673 3.14771
30 4 -0.777533 4.28651 5.44338
31 2 5.09185 2.93978 6.8873
32 2 5.09185 0 8.59079
33 2 5.09185 2.93978 10.8865
34 2 7.63793 1.46989 9.18296
35 2 5.09185 0 11.4786
36 2 7.63793 1.46989 13.1824
37 2 5.09185 0 1.70379
38 2 5.09185 2.93978 0
39 2 7.63793 1.46989 2.29567
40 2 5.09185 2.93978 3.99946
41 2 7.63793 1.46989 6.29512
42 2 5.09185 0 4.59133
43 4 6.86039 3.06294 10.0347
44 4 6.64692 0 10.0347
45 4 8.41546 0.123163 7.73904
46 4 6.08286 1.46989 7.73904
47 4 8.41546 2.81662 7.73904
48 4 4.31432 1.34673 10.0347
49 4 6.86039 0.123163 0.851745
50 4 9.19299 1.46989 0.851745
51 4 5.86938 1.59305 12.3304
52 4 3.53678 2.93978 12.3304
53 4 5.86938 4.28651 12.3304
54 4 6.86039 2.81662 0.851745
55 4 4.31432 1.59305 5.44338
56 4 6.64692 2.93978 5.44338
57 4 3.32346 3.06294 3.14771
58 4 8.62878 0 3.14771
59 4 5.86938 1.34673 3.14771
60 4 4.31432 4.28651 5.44338
61 2 10.1839 2.93978 6.8873
62 2 10.1839 0 8.59079
63 2 10.1839 2.93978 10.8865
64 2 12.7298 1.46989 9.18296
65 2 10.1839 0 11.4786
66 2 12.7298 1.46989 13.1824
67 2 10.1839 0 1.70379
68 2 10.1839 2.93978 0
69 2 12.7298 1.46989 2.29567
70 2 10.1839 2.93978 3.99946
71 2 12.7298 1.46989 6.29512
72 2 10.1839 0 4.59133
73 4 11.9522 3.06294 10.0347
74 4 11.7389 0 10.0347
75 4 13.5073 0.123163 7.73904
76 4 11.1747 1.46989 7.73904
77 4 13.5073 2.81662 7.73904
78 4 9.40632 1.34673 10.0347
79 4 11.9522 0.123163 0.851745
80 4 14.2848 1.46989 0.851745
81 4 10.9614 1.59305 12.3304
82 4 8.62878 2.93978 12.3304
83 4 10.9614 4.28651 12.3304
84 4 11.9522 2.81662 0.851745
85 4 9.40632 1.59305 5.44338
86 4 11.7389 2.93978 5.44338
87 4 8.41546 3.06294 3.14771
88 4 13.7206 0 3.14771
89 4 10.9614 1.34673 3.14771
90 4 9.40632 4.28651 5.44338
91 2 -2.546 7.34958 6.8873
92 2 -2.54592 4.40967 8.59079
93 2 -2.546 7.34958 10.8865
94 2 4.44089e-16 5.87956 9.18296
95 2 -2.54592 4.40967 11.4786
96 2 4.44089e-16 5.87956 13.1824
97 2 -2.54592 4.40967 1.70379
98 2 -2.546 7.34958 0
99 2 4.44089e-16 5.87956 2.29567
100 2 -2.546 7.34958 3.99946
101 2 4.44089e-16 5.87956 6.29512
102 2 -2.54592 4.40967 4.59133
103 4 -0.77761 7.47275 10.0347
104 4 -0.990858 4.40967 10.0347
105 4 0.777533 4.53283 7.73904
106 4 -1.55507 5.87956 7.73904
107 4 0.777533 7.22629 7.73904
108 4 11.9522 5.7564 10.0347
109 4 -0.777533 4.53283 0.851745
110 4 1.55507 5.87956 0.851745
111 4 -1.76847 6.00286 12.3304
112 4 -4.10107 7.34958 12.3304
113 4 -1.76847 8.69631 12.3304
114 4 -0.777533 7.22629 0.851745
115 4 -3.32353 6.00286 5.44338
116 4 -0.990935 7.34958 5.44338
117 4 -4.31439 7.47275 3.14771
118 4 0.990858 4.40967 3.14771
119 4 -1.76839 5.7564 3.14771
120 4 -3.32353 8.69631 5.44338
121 2 2.54585 7.34958 6.8873
122 2 2.54592 4.40967 8.59079
123 2 2.54585 7.34958 10.8865
124 2 5.092 5.87956 9.18296
125 2 2.54592 4.40967 11.4786
126 2 5.092 5.87956 13.1824
127 2 2.54592 4.40967 1.70379
128 2 2.54585 7.34958 0
129 2 5.092 5.87956 2.29567
130 2 2.54585 7.34958 3.99946
131 2 5.092 5.87956 6.29512
132 2 2.54592 4.40967 4.59133
133 4 4.31439 7.47275 10.0347
134 4 4.10099 4.40967 10.0347
135 4 5.86953 4.53283 7.73904
136 4 3.53694 5.87956 7.73904
137 4 5.86953 7.22629 7.73904
138 4 1.76839 5.7564 10.0347
139 4 4.31447 4.53283 0.851745
140 4 6.64707 5.87956 0.851745
141 4 3.32338 6.00286 12.3304
142 4 0.990782 7.34958 12.3304
143 4 3.32338 8.69631 12.3304
144 4 4.31447 7.22629 0.851745
145 4 1.76832 6.00286 5.44338
146 4 4.10091 7.34958 5.44338
147 4 0.777457 7.47275 3.14771
148 4 6.08286 4.40967 3.14771
149 4 3.32346 5.7564 3.14771
150 4 1.76832 8.69631 5.44338
151 2 7.63785 7.34958 6.8873
152 2 7.63793 4.40967 8.59079
153 2 7.63785 7.34958 10.8865
154 2 10.1839 5.87956 9.18296
155 2 7.63793 4.40967 11.4786
156 2 10.1839 5.87956 13.1824
157 2 7.63793 4.40967 1.70379
158 2 7.63785 7.34958 0
159 2 10.1839 5.87956 2.29567
160 2 7.63785 7.34958 3.99946
161 2 10.1839 5.87956 6.29512
162 2 7.63793 4.40967 4.59133
163 4 9.40624 7.47275 10.0347
164 4 9.19299 4.40967 10.0347
165 4 10.9614 4.53283 7.73904
166 4 8.62878 5.87956 7.73904
167 4 10.9614 7.22629 7.73904
168 4 6.86039 5.7564 10.0347
169 4 9.40632 4.53283 0.851745
170 4 11.7389 5.87956 0.851745
171 4 8.41538 6.00286 12.3304
172 4 6.08278 7.34958 12.3304
173 4 8.41538 8.69631 12.3304
174 4 9.40632 7.22629 0.851745
175 4 6.86032 6.00286 5.44338
176 4 9.19292 7.34958 5.44338
177 4 5.86946 7.47275 3.14771
178 4 11.1747 4.40967 3.14771
179 4 8.41546 5.7564 3.14771
180 4 6.86032 8.69631 5.44338
181 2 -5.09193 11.7593 6.8873
182 2 10.1838 8.81947 8.59079
183 2 -5.09193 11.7593 10.8865
184 2 -2.546 10.2894 9.18296
185 2 10.1838 8.81947 11.4786
186 2 -2.546 10.2894 13.1824
187 2 10.1838 8.81947 1.70379
188 2 -5.09193 11.7593 0
189 2 -2.546 10.2894 2.29567
190 2 -5.09193 11.7593 3.99946
191 2 -2.546 10.2894 6.29512
192 2 10.1838 8.81947 4.59133
193 4 -3.32353 11.8824 10.0347
194 4 -3.53686 8.81947 10.0347
195 4 -1.76847 8.94264 7.73904
196 4 -4.10107 10.2894 7.73904
197 4 -1.76847 11.6361 7.73904
198 4 9.40624 10.1662 10.0347
199 4 -3.32353 8.94264 0.851745
200 4 -0.990935 10.2894 0.851745
201 4 -4.31439 10.4125 12.3304
202 4 -6.64699 11.7593 12.3304
203 4 -4.31439 13.106 12.3304
204 4 -3.32353 11.6361 0.851745
205 4 -5.86946 10.4125 5.44338
206 4 -3.53686 11.7593 5.44338
207 4 -6.86032 11.8824 3.14771
208 4 -1.55514 8.81947 3.14771
209 4 -4.31439 10.1662 3.14771
210 4 -5.86946 13.106 5.44338
211 2 -7.63785e-05 11.7593 6.8873
212 2 -7.63785e-05 8.81947 8.59079
213 2 -7.63785e-05 11.7593 10.8865
214 2 2.546 10.2894 9.18296
215 2 -7.63785e-05 8.81947 11.4786
216 2 2.546 10.2894 13.1824
217 2 -7.63785e-05 8.81947 1.70379
218 2 -7.63785e-05 11.7593 0
219 2 2.546 10.2894 2.29567
220 2 -7.63785e-05 11.7593 3.99946
221 2 2.546 10.2894 6.29512
222 2 -7.63785e-05 8.81947 4.59133
223 4 1.76847 11.8824 10.0347
224 4 1.55499 8.81947 10.0347
225 4 3.32353 8.94264 7.73904
226 4 0.990935 10.2894 7.73904
227 4 3.32353 11.6361 7.73904
228 4 -0.77761 10.1662 10.0347
229 4 1.76847 8.94264 0.851745
230 4 4.10107 10.2894 0.851745
231 4 0.777457 10.4125 12.3304
232 4 -1.55514 11.7593 12.3304
233 4 0.777457 13.106 12.3304
234 4 1.76847 11.6361 0.851745
235 4 -0.77761 10.4125 5.44338
236 4 1.55499 11.7593 5.44338
237 4 -1.76847 11.8824 3.14771
238 4 3.53686 8.81947 3.14771
239 4 0.777457 10.1662 3.14771
240 4 -0.77761 13.106 5.44338
241 2 5.09193 11.7593 6.8873
242 2 5.09193 8.81947 8.59079
243 2 5.09193 11.7593 10.8865
244 2 7.63785 10.2894 9.18296
245 2 5.09193 8.81947 11.4786
246 2 7.63785 10.2894 13.1824
247 2 5.09193 8.81947 1.70379
248 2 5.09193 11.7593 0
249 2 7.63785 10.2894 2.29567
250 2 5.09193 11.7593 3.99946
251 2 7.63785 10.2894 6.29512
252 2 5.09193 8.81947 4.59133
253 4 6.86032 11.8824 10.0347
254 4 6.64699 8.81947 10.0347
255 4 8.41538 8.94264 7.73904
256 4 6.08278 10.2894 7.73904
257 4 8.41538 11.6361 7.73904
258 4 4.31439 10.1662 10.0347
259 4 6.86032 8.94264 0.851745
260 4 9.19292 10.2894 0.851745
261 4 5.86946 10.4125 12.3304
262 4 3.53686 11.7593 12.3304
263 4 5.86946 13.106 12.3304
264 4 6.86032 11.6361 0.851745
265 4 4.31439 10.4125 5.44338
266 4 6.64699 11.7593 5.44338
267 4 3.32353 11.8824 3.14771
268 4 8.62871 8.81947 3.14771
269 4 5.86946 10.1662 3.14771
270 4 4.31439 13.106 5.44338
271 3 5.54653 7.07905 16.0724
272 1 6.35981 6.38372 16.0724
273 1 5.6032 7.6942 16.9462
274 1 5.6032 7.6942 15.1986
275 1 4.61991 6.54406 16.0724
276 3 10.109 4.02192 16.4321
277 1 10.9223 3.3266 16.4321
278 1 10.1657 4.63708 17.3059
279 1 10.1657 4.63708 15.5584
280 1 9.18238 3.48694 16.4321
281 3 -3.04926 9.95268 19.6417
282 1 -2.23613 9.25736 19.6417
283 1 -2.99274 10.5678 20.5155
284 1 -2.99274 10.5678 18.768
285 1 -3.97588 9.4177 19.6417
286 3 7.36464 3.90829 18.4984
287 1 8.17777 3.21296 18.4984
288 1 7.42116 4.52344 19.3722
289 1 7.42116 4.52344 17.625
290 1 6.43802 3.3733 18.4984
291 3 6.1073 11.5336 23.0726
292 1 6.92058 10.8382 23.0726
293 1 6.16397 12.1487 23.9463
294 1 6.16397 12.1487 22.1991
295 1 5.18068 10.9986 23.0726
296 3 6.18276 1.99429 24.1283
297 1 6.99604 1.29897 24.1283
298 1 6.23944 2.60945 25.0021
299 1 6.23944 2.60945 23.2546
300 1 5.25614 1.45931 24.1283
301 3 11.5005 1.24248 21.5725
302 1 12.3136 0.547157 21.5725
303 1 11.557 1.85764 22.4463
304 1 11.557 1.85764 20.6987
305 1 10.5738 0.707495 21.5725
306 3 1.25047 2.98688 16.0841
307 1 2.06375 2.29155 16.0841
308 1 1.30714 3.60203 16.9576
309 1 1.30714 3.60203 15.2104
310 1 0.323845 2.45189 16.0841
311 3 0.642114 11.0769 16.5559
312 1 1.45524 10.3816 16.5559
313 1 0.698634 11.692 17.4297
314 1 0.698634 11.692 15.6824
315 1 -0.28451 10.5419 16.5559
316 3 0.205993 8.8118 16.2251
317 1 1.01919 8.11634 16.2251
318 1 0.262589 9.42682 17.0986
319 1 0.262589 9.42682 15.3513
320 1 -0.720708 8.27668 16.2251
321 3 3.17444 9.28289 17.1339
322 1 3.98757 8.58757 17.1339
323 1 3.23096 9.89805 18.0077
324 1 3.23096 9.89805 16.2604
325 1 2.24782 8.7479 17.1339
326 3 1.1841 6.32525 20.3489
327 1 1.99737 5.62993 20.3489
328 1 1.24085 6.94027 21.2224
329 1 1.24085 6.94027 19.4751
330 1 0.257472 5.79026 20.3489
331 3 6.10226 4.04084 15.9628
332 1 6.91554 3.34552 15.9628
333 1 6.15893 4.656 16.8366
334 1 6.15893 4.656 15.089
335 1 5.17564 3.50586 15.9628
336 3 7.32439 8.64366 21.8677
337 1 8.13767 7.94833 21.8677
338 1 7.38107 9.25881 22.7415
339 1 7.38107 9.25881 20.9939
340 1 6.39777 8.10867 21.8677
341 3 9.4261 7.5926 19.3918
342 1 10.2394 6.89728 19.3918
343 1 9.48277 8.20776 20.2656
344 1 9.48277 8.20776 18.5184
345 1 8.49948 7.05762 19.3918
346 3 9.88857 6.08382 20.8946
347 1 10.7019 5.38836 20.8946
348 1 9.94532 6.69884 21.7684
349 1 9.94532 6.69884 20.0208
350 1 8.96195 5.54883 20.8946
351 3 -2.07238 11.9746 22.4752
352 1 -1.25902 11.2792 22.4752
353 1 -2.01563 12.5896 23.349
354 1 -2.01563 12.5896 21.6015
355 1 -2.999 11.4396 22.4752
356 3 6.94158 10.006 15.8463
357 1 7.75471 9.31067 15.8463
358 1 6.9981 10.6212 16.7201
359 1 6.9981 10.6212 14.9725
360 1 6.01496 9.47101 15.8463
361 3 4.69147 12.1764 19.0568
362 1 5.50483 11.4809 19.0568
363 1 4.74822 12.7914 19.9306
364 1 4.74822 12.7914 18.1833
365 1 3.76493 11.6413 19.0568
366 3 4.13078 11.369 20.5638
367 1 4.9439 10.6737 20.5638
368 1 4.1873 11.9841 21.4373
369 1 4.1873 11.9841 19.69
370 1 3.20415 10.834 20.5638
371 3 2.16105 8.34706 23.1821
372 1 2.97433 7.65174 23.1821
373 1 2.21773 8.96222 24.0559
374 1 2.21773 8.96222 22.3086
375 1 1.23443 7.81207 23.1821
ITEM: TIMESTEP
500
ITEM: NUMBER OF ATOMS
375
ITEM: BOX BOUNDS xy xz yz pp pp pp
-7.6378500000000003e+00 1.5275700000000001e+01 -7.6378500000000003e+00
0.0000000000000000e+00 1.3229144260600000e+01 0.0000000000000000e+00
0.0000000000000000e+00 3.0182300000000001e+01 0.0000000000000000e+00
ITEM: ATOMS id type x y z
1 2 -0.126853 3.04586 7.15747
2 2 7.50207 13.0051 8.53304
3 2 0.0565332 2.90782 11.204
4 2 2.59385 1.34659 9.10165
5 2 15.0953 0.0338597 11.3703
6 2 2.49192 1.26944 12.795
7 2 7.47302 13.116 1.64521
8 2 -0.117462 3.12975 0.242222
9 2 2.77525 1.73038 1.87081
10 2 0.150149 2.99032 3.98249
11 2 2.59415 1.35214 6.74371
12 2 0.258023 0.298245 4.32179
13 4 1.52963 2.87819 10.1392
14 4 -6.08927 13.1404 10.2415
15 4 -4.47597 13.1233 7.9271
16 4 0.957006 1.58799 7.84084
17 4 3.48328 2.71317 7.79591
18 4 -0.757648 1.5374 10.1863
19 4 -6.55423 12.7555 0.344983
20 4 4.55468 1.53819 0.925753
21 4 0.671314 1.61022 12.2537
22 4 -1.53782 2.89872 12.2232
23 4 0.817217 4.42416 12.5343
24 4 1.65644 3.28185 0.744831
25 4 -0.783776 1.42753 5.30412
26 4 1.46534 2.71097 5.41822
27 4 -1.45066 2.78788 3.08717
28 4 -4.02883 13.2177 3.1048
29 4 1.04354 1.50018 2.87895
30 4 -0.616243 4.0017 5.37062
31 2 5.27614 2.91913 6.7548
32 2 -2.63791 13.1286 8.75321
33 2 4.83795 2.97174 11.2947
34 2 7.4191 1.23784 9.07536
35 2 5.0384 0.053755 11.5642
36 2 7.36858 1.56091 12.7188
37 2 -2.38134 13.2202 1.96493
38 2 5.23469 2.78725 0.177486
39 2 7.88835 1.72763 1.95336
40 2 5.08552 2.79684 3.85108
41 2 7.52799 1.54534 6.03145
42 2 5.00134 0.0587083 4.66427
43 4 6.68373 3.08029 10.032
44 4 6.69505 0.0916059 10.4049
45 4 0.561421 13.152 7.8209
46 4 6.06579 1.31378 7.5648
47 4 8.69995 2.84948 7.78086
48 4 4.20363 1.33692 10.2393
49 4 -0.937612 13.1735 1.03942
50 4 9.49101 1.5361 0.799833
51 4 5.42338 1.56635 12.4113
52 4 3.13953 3.02448 12.1283
53 4 5.89806 4.44626 11.8756
54 4 6.8382 2.69901 0.44752
55 4 4.19774 1.56974 5.57876
56 4 6.52292 2.86078 5.18445
57 4 3.26732 3.2102 3.10726
58 4 8.8986 0.0903091 3.06932
59 4 6.14663 1.318 3.03081
60 4 4.24986 4.27666 5.26027
61 2 10.3068 2.95738 6.69898
62 2 2.51322 13.0819 8.71845
63 2 10.1992 2.87383 11.1118
64 2 12.657 1.59982 8.91791
65 2 10.2273 0.211154 11.4005
66 2 12.6774 1.54426 12.723
67 2 10.3198 0.111312 1.82764
68 2 10.432 2.95927 0.297154
69 2 12.917 1.42229 1.93837
70 2 10.4539 3.16615 3.87979
71 2 12.8914 1.40624 6.12996
72 2 2.64396 12.942 4.57448
73 4 11.8872 3.23748 10.1774
74 4 11.6026 0.206458 9.89459
75 4 13.3911 0.277744 7.79633
76 4 11.0675 1.59813 7.86082
77 4 13.2259 2.94668 7.76265
78 4 9.37937 1.34131 10.2857
79 4 4.35021 13.147 0.70976
80 4 -0.707869 1.51021 0.849855
81 4 10.9408 1.57645 12.6247
82 4 8.10024 3.10758 12.0466
83 4 10.9505 4.74465 12.0927
84 4 11.8507 2.92606 1.12908
85 4 9.39849 2.05572 5.39906
86 4 11.7448 2.81715 5.41415
87 4 8.30008 3.21561 3.07896
88 4 13.7105 0.0366269 3.14102
89 4 11.2957 1.48611 3.19356
90 4 9.83562 4.59554 5.587
91 2 -2.71091 7.40967 6.90252
92 2 -2.57754 4.72066 8.67809
93 2 -2.54593 7.3488 11.1228
94 2 -0.0518541 5.9433 9.21552
95 2 12.6124 4.15243 11.7127
96 2 -0.0873882 5.90186 12.5665
97 2 -2.45306 4.54739 1.49347
98 2 -2.73767 7.06695 0.623913
99 2 0.125226 6.00849 2.1378
100 2 -2.46812 7.10696 4.0577
101 2 -0.134309 5.66011 6.21959
102 2 -2.60575 4.61848 4.82831
103 4 -0.916784 7.45813 10.1085
104 4 -0.935981 4.63456 10.3715
105 4 0.461692 4.5625 7.95582
106 4 -1.59675 5.90362 7.6717
107 4 0.665622 7.25091 8.02137
108 4 -3.23948 6.09391 9.76547
109 4 -1.09526 4.6596 0.43558
110 4 1.85076 6.02578 1.01937
111 4 -1.92932 5.47608 12.567
112 4 10.8748 7.39165 12.3918
113 4 -1.72116 8.63626 12.3506
114 4 -1.00608 7.46002 0.548281
115 4 -3.3736 6.08697 5.64541
116 4 -0.75591 6.98904 5.11412
117 4 -4.11921 7.43527 2.98352
118 4 0.998615 4.47031 3.14983
119 4 -1.58577 5.71231 2.79305
120 4 -3.07211 8.48855 5.59263
121 2 2.54845 7.30621 6.60169
122 2 2.65635 4.2913 8.75256
123 2 2.43698 7.47363 11.3634
124 2 5.24688 6.06038 8.97775
125 2 2.44265 4.46552 11.2481
126 2 5.03325 5.69655 12.7381
127 2 2.59862 4.47798 1.66564
128 2 2.35788 7.53283 0.363176
129 2 5.01102 5.95117 1.9834
130 2 2.70289 7.27592 3.92462
131 2 4.87843 5.92983 6.52964
132 2 2.46317 4.17472 4.65821
133 4 3.87974 7.80342 10.0913
134 4 3.9508 4.42004 10.1847
135 4 5.70224 4.37183 7.79017
136 4 3.45384 5.86571 7.8678
137 4 6.15747 7.08754 7.53708
138 4 1.66855 5.81957 10.2071
139 4 4.44647 4.17343 0.622363
140 4 6.61338 5.69126 0.932232
141 4 3.12952 5.83381 12.2978
142 4 0.944097 7.4803 12.5714
143 4 3.64603 9.01499 12.3985
144 4 3.94185 7.73548 0.477661
145 4 1.68381 5.67404 5.68384
146 4 4.16884 7.3793 5.4512
147 4 0.705952 7.514 2.97375
148 4 5.97305 4.04862 2.96312
149 4 3.47291 5.73415 3.23331
150 4 1.55702 8.53599 5.4541
151 2 7.91391 7.42374 6.65154
152 2 7.59154 4.2251 8.50701
153 2 7.49062 7.51817 10.9388
154 2 10.11 5.79348 9.25036
155 2 7.42703 4.63101 10.9509
156 2 9.85634 5.8716 13.0747
157 2 7.48878 4.37557 1.83646
158 2 7.7365 7.17711 0.306255
159 2 9.77851 5.95732 2.0301
160 2 7.37739 7.16655 4.12924
161 2 10.1834 6.06994 6.5038
162 2 7.75775 4.38425 4.57332
163 4 9.56088 7.36661 10.2277
164 4 9.03479 4.15201 10.1927
165 4 10.9621 4.74856 7.73841
166 4 8.66327 5.83729 7.86756
167 4 -4.41104 7.72435 7.62475
168 4 6.95143 6.0453 9.71395
169 4 9.28814 4.25477 0.921285
170 4 11.6074 5.55878 0.354747
171 4 8.21628 5.76015 12.236
172 4 5.76274 7.39889 11.8206
173 4 8.67472 8.98144 11.9107
174 4 9.41281 7.70496 0.402079
175 4 6.66307 5.67172 5.53634
176 4 9.29928 7.17429 5.16336
177 4 5.85131 7.2749 3.24978
178 4 11.4186 4.64836 3.29749
179 4 8.16505 5.82906 3.11108
180 4 6.90675 8.76382 5.14945
181 2 -5.20338 11.7795 6.6235
182 2 -4.88253 9.09645 8.68092
183 2 -5.0015 11.789 11.1234
184 2 -2.51587 10.4975 9.54866
185 2 -4.90864 8.81218 11.2745
186 2 -2.28926 10.2913 12.8125
187 2 -4.7665 8.80356 1.82734
188 2 -5.10497 11.8658 0.233724
189 2 -2.39303 10.2333 2.43288
190 2 -5.10053 11.8288 4.17806
191 2 -2.68323 10.1505 6.55517
192 2 -4.88347 8.61495 4.58326
193 4 -3.26819 11.8996 10.3688
194 4 -3.49198 9.01299 9.99488
195 4 -1.61884 8.6272 7.63441
196 4 -3.98693 10.4852 7.97504
197 4 -1.65755 11.5558 8.21931
198 4 -5.6808 10.1764 10.0092
199 4 -3.12789 8.75967 1.1633
200 4 -0.667456 9.90988 0.719768
201 4 -4.00444 10.0973 12.2602
202 4 -6.71497 12.1259 12.2066
203 4 -4.20428 13.1548 12.331
204 4 -3.57771 12.4028 0.748374
205 4 -5.91235 10.4145 5.35666
206 4 -3.56253 11.7688 5.90103
207 4 -6.66855 12.036 3.05152
208 4 -1.39875 8.67102 3.20175
209 4 -4.03896 10.2967 3.5236
210 4 -5.87279 13.1952 5.68078
211 2 -0.212197 11.7823 6.83723
212 2 -0.087455 8.77294 8.64575
213 2 0.149206 11.8707 11.2253
214 2 2.68111 10.2206 9.4302
215 2 -0.0737111 8.78867 11.3047
216 2 2.19626 9.86287 12.8008
217 2 -0.11698 8.53932 1.6616
218 2 0.0475838 11.6583 0.553152
219 2 2.41194 10.529 1.97384
220 2 0.0886259 11.895 3.84437
221 2 2.24228 10.0488 6.31724
222 2 -0.0792171 8.72916 4.47975
223 4 1.79695 11.6711 10.1038
224 4 1.43222 8.80501 10.1813
225 4 3.17286 8.99672 7.59332
226 4 0.91499 10.0393 7.79981
227 4 3.3409 11.7298 7.65951
228 4 -0.880321 9.99523 10.0599
229 4 1.7638 8.83458 0.980385
230 4 3.94181 10.2803 0.707488
231 4 0.606247 10.3081 12.2234
232 4 -1.57497 11.9608 12.3828
233 4 8.6702 0.223594 12.3886
234 4 1.9298 12.2156 0.707505
235 4 -0.858943 10.0452 5.41354
236 4 1.38029 11.821 5.41452
237 4 -1.7076 11.7337 3.13531
238 4 3.56646 9.03695 3.11747
239 4 0.749209 10.3009 3.13469
240 4 -0.978996 12.8763 5.51656
241 2 5.24835 11.8271 7.04106
242 2 4.87497 9.01762 8.55127
243 2 5.13741 11.711 11.4912
244 2 7.672 10.3903 9.08441
245 2 5.1169 8.90542 11.0939
246 2 7.72619 10.2366 12.8282
247 2 5.04986 9.14072 1.6494
248 2 5.06844 11.6134 0.32113
249 2 7.96671 10.4394 2.26241
250 2 5.33101 11.8227 4.19996
251 2 7.62786 10.1897 6.27309
252 2 5.11135 8.81455 4.56762
253 4 6.72694 11.8295 10.1759
254 4 6.60803 8.70745 9.84302
255 4 8.66079 8.88298 7.58312
256 4 6.04111 10.2468 7.40146
257 4 8.37019 11.6244 7.72142
258 4 4.47408 10.3657 9.93262
259 4 6.72971 8.46577 0.721249
260 4 -5.29027 10.3764 1.04569
261 4 6.10889 10.3185 12.1465
262 4 3.29378 11.7714 12.2888
263 4 5.82908 13.1872 12.3093
264 4 6.79304 11.6777 0.776754
265 4 4.46714 10.3783 5.31964
266 4 6.81887 11.7598 5.41549
267 4 3.27656 11.8519 3.11872
268 4 9.00458 8.79142 3.01707
269 4 6.01937 10.3997 3.02878
270 4 4.33043 13.0693 5.39301
271 3 5.89706 6.85469 15.0434
272 1 6.10489 1.19173 18.4706
273 1 8.02974 11.8576 13.7803
274 1 -6.27638 11.2142 14.2956
275 1 1.25173 8.84035 20.9528
276 3 10.0335 3.96853 16.4091
277 1 9.13687 4.14654 14.315
278 1 8.3869 1.71666 17.0808
279 1 9.10169 4.77922 15.5773
280 1 8.03403 3.46954 13.4114
281 3 -1.9358 9.79907 18.184
282 1 -3.50066 10.5427 20.0141
283 1 -3.81465 9.20266 20.4406
284 1 -4.43008 8.2392 20.7017
285 1 -3.20341 9.50288 21.5355
286 3 7.54166 3.76017 18.6517
287 1 -0.777823 11.7615 21.1187
288 1 -1.07824 12.7997 22.0851
289 1 5.00021 6.91523 14.1244
290 1 7.2708 0.85169 21.2994
291 3 5.6795 12.9047 22.0368
292 1 5.14545 7.11273 23.6222
293 1 5.36887 6.11977 24.5808
294 1 12.4748 0.048375 21.0302
295 1 5.52394 5.84165 25.8453
296 3 5.93928 2.56141 25.1631
297 1 4.4283 1.33531 24.3744
298 1 3.44626 2.83578 22.3145
299 1 3.94505 2.62218 23.7001
300 1 3.11651 2.22969 24.7094
301 3 11.3568 0.456122 21.5035
302 1 3.11587 0.676667 19.9867
303 1 5.41599 11.5216 20.5485
304 1 5.18686 12.4892 19.8187
305 1 11.3852 6.1123 24.3019
306 3 2.96527 2.63053 15.9995
307 1 1.79376 2.55969 14.1902
308 1 11.9308 4.40285 15.0639
309 1 10.7506 4.16426 14.744
310 1 1.9823 1.68738 15.2309
311 3 -0.301327 11.7099 16.4332
312 1 8.58 1.24524 20.3865
313 1 8.87305 0.457638 16.8418
314 1 8.23223 1.34966 15.9323
315 1 0.609551 12.1496 15.9358
316 3 0.457126 8.90052 17.0312
317 1 1.52893 9.59976 17.5607
318 1 10.0843 7.73551 15.1282
319 1 -3.01536 9.46025 13.8744
320 1 -4.44423 8.39052 16.0524
321 3 3.73596 8.36095 17.1201
322 1 1.45825 7.09102 20.8349
323 1 2.48482 9.77673 18.1801
324 1 5.97231 0.913847 16.7508
325 1 2.87887 8.71712 17.6872
326 3 2.22032 6.01324 20.6331
327 1 -1.33075 4.44038 17.5689
328 1 0.724948 9.13222 22.5031
329 1 -0.120768 3.61415 17.4002
330 1 -0.393975 5.17469 17.9891
331 3 6.0652 2.91788 15.3305
332 1 5.88926 1.82368 15.4129
333 1 6.4048 -0.0370134 19.1013
334 1 6.54621 6.55242 14.1924
335 1 7.19332 2.91769 19.0787
336 3 6.50731 8.94347 23.8664
337 1 12.4421 4.84359 24.825
338 1 5.64486 8.27591 24.2341
339 1 10.1066 0.805273 14.2326
340 1 2.67889 1.743 19.8612
341 3 9.4882 6.29065 19.7896
342 1 8.5616 1.86688 19.3634
343 1 2.56272 0.651989 21.0424
344 1 9.73383 8.65667 19.3674
345 1 9.9037 7.20167 19.6119
346 3 11.3407 5.57452 22.1129
347 1 -2.7323 6.30282 27.2448
348 1 11.7817 5.55448 26.3277
349 1 2.17747 8.15348 20.0843
350 1 11.7458 3.79677 25.1379
351 3 -2.38816 13.1963 23.096
352 1 1.35424 10.7374 23.4102
353 1 1.94586 1.62158 23.6872
354 1 1.14466 11.9845 23.4885
355 1 -2.88039 12.2861 21.7575
356 3 6.27019 9.4448 15.6652
357 1 -2.71188 9.21514 17.8575
358 1 -2.87141 8.38473 17.0272
359 1 -3.11156 9.38454 15.7157
360 1 -3.36366 10.534 18.4826
361 3 5.03049 11.3579 18.1549
362 1 10.3091 1.703 17.4104
363 1 0.107708 4.25462 18.8746
364 1 -2.96535 5.27042 14.4953
365 1 4.80138 12.1292 18.7086
366 3 5.15182 8.66473 22.4251
367 1 11.0138 2.61607 17.5472
368 1 -3.43229 12.1886 23.5233
369 1 -5.66978 11.116 28.4138
370 1 11.578 3.29389 22.0274
371 3 2.50526 8.9237 23.7131
372 1 1.1978 7.58699 23.2682
373 1 1.66005 9.1551 23.156
374 1 -2.25126 11.5902 24.0991
375 1 0.781478 7.73471 21.8729
ITEM: TIMESTEP
1000
ITEM: NUMBER OF ATOMS
375
ITEM: BOX BOUNDS xy xz yz pp pp pp
-7.6378500000000003e+00 1.5275700000000001e+01 -7.6378500000000003e+00
0.0000000000000000e+00 1.3229144260600000e+01 0.0000000000000000e+00
0.0000000000000000e+00 3.0182300000000001e+01 0.0000000000000000e+00
ITEM: ATOMS id type x y z
1 2 -0.00362878 2.8625 7.00304
2 2 7.63115 13.2267 8.7096
3 2 -0.156702 3.02073 11.2501
4 2 2.38501 1.44906 9.41311
5 2 15.0821 0.237807 10.8796
6 2 2.42003 1.58414 12.8451
7 2 -7.58959 13.1912 1.55704
8 2 -0.0691954 3.02919 0.70577
9 2 2.50564 1.75883 1.7505
10 2 0.0889637 2.8999 3.97629
11 2 2.48195 1.50701 6.53879
12 2 0.280057 0.18052 4.28318
13 4 1.71057 3.15231 10.0116
14 4 -6.14847 13.0355 10.0674
15 4 3.29016 0.041582 7.62865
16 4 0.849945 1.32682 7.89098
17 4 3.20673 2.67717 7.80276
18 4 14.1327 1.52024 9.98615
19 4 -6.43407 12.8244 30.0737
20 4 4.38804 1.58136 1.01346
21 4 0.721616 1.28424 12.0471
22 4 -1.64195 3.1638 12.7386
23 4 0.773404 4.27404 12.216
24 4 1.83295 2.92307 0.625171
25 4 -0.676872 1.66854 5.37915
26 4 1.7315 2.87339 5.61524
27 4 -1.42283 3.11981 2.6481
28 4 3.63115 0.0638044 3.30802
29 4 0.952604 1.33688 2.83457
30 4 -0.880523 4.42339 5.50409
31 2 5.06438 2.8607 6.71227
32 2 5.02878 0.0454849 8.71218
33 2 4.88708 2.99741 11.1052
34 2 7.55161 1.48469 9.06245
35 2 5.06286 0.0938231 11.4065
36 2 7.09221 1.19075 12.6416
37 2 5.20499 0.0616398 1.92851
38 2 5.29369 3.05132 0.469564
39 2 7.81268 1.45828 1.74696
40 2 5.11922 2.9076 3.94985
41 2 7.79176 1.4129 6.25267
42 2 -2.70153 13.1485 4.66264
43 4 6.68202 3.03192 9.90095
44 4 6.52356 0.119585 10.1432
45 4 8.51626 0.166448 7.69271
46 4 5.98725 1.58263 7.83541
47 4 8.30989 2.74229 7.41113
48 4 4.34291 1.45817 10.2227
49 4 -0.821175 13.2603 0.815322
50 4 9.70989 1.45051 0.901159
51 4 5.25523 1.59249 12.3992
52 4 3.1577 3.1611 12.3369
53 4 5.85202 4.34079 12.0716
54 4 7.11795 3.05425 0.815767
55 4 4.2526 1.57542 5.35988
56 4 6.63505 2.91914 5.47656
57 4 3.40662 3.06154 3.07
58 4 8.8023 0.246732 3.05554
59 4 5.97767 1.41748 2.99583
60 4 4.34658 4.27425 5.81005
61 2 10.146 2.96835 6.73247
62 2 2.38408 13.0613 8.75721
63 2 10.081 3.07797 10.9652
64 2 12.5374 1.73544 8.99038
65 2 2.54138 13.0949 11.225
66 2 12.9494 1.46728 12.5292
67 2 10.407 0.100013 1.93978
68 2 10.3299 3.21595 0.736774
69 2 12.956 1.52675 1.95625
70 2 10.4744 3.00804 3.96011
71 2 12.8097 1.51669 6.24629
72 2 2.6198 13.0707 4.52373
73 4 11.9267 3.11495 9.89636
74 4 11.5905 0.449642 10.1615
75 4 13.496 0.15687 7.81428
76 4 11.329 1.67052 7.56223
77 4 13.5492 2.93598 7.90713
78 4 9.09674 1.52282 9.96774
79 4 11.9396 0.255097 0.88313
80 4 14.3209 1.35429 0.552479
81 4 10.8929 1.80631 12.6606
82 4 8.6629 3.67451 12.1244
83 4 10.834 4.37406 11.9795
84 4 12.2244 2.90644 0.735768
85 4 9.47881 1.26862 5.32712
86 4 11.8155 3.04747 5.50937
87 4 8.6238 3.09787 2.96041
88 4 13.8699 0.103642 2.78922
89 4 11.3409 1.51211 3.02876
90 4 9.39279 4.43597 5.41812
91 2 -2.57026 7.35477 6.90236
92 2 -2.62951 4.60154 8.8926
93 2 -2.7521 7.16537 11.3863
94 2 0.099424 5.84313 9.14474
95 2 12.7374 4.36497 11.4853
96 2 -0.0913668 5.90638 12.1169
97 2 -2.51572 4.47737 1.69616
98 2 -2.68577 7.07194 1.05273
99 2 0.180064 5.80856 1.81832
100 2 -2.47204 7.06293 4.01326
101 2 0.0617655 5.73846 6.49567
102 2 12.661 4.48166 4.62748
103 4 -0.728527 7.36992 10.0453
104 4 -1.08031 4.32237 10.0832
105 4 0.957128 4.49821 7.72876
106 4 -1.50851 5.85859 7.80993
107 4 0.787827 7.19738 7.68294
108 4 -3.26354 5.85486 10.11
109 4 -1.04731 4.50287 0.500201
110 4 1.6586 5.78715 0.750759
111 4 -2.01943 6.07166 12.4725
112 4 10.8025 7.36566 12.0411
113 4 -1.79433 8.58483 12.146
114 4 -0.631922 7.24518 0.860996
115 4 11.7686 5.9776 5.50139
116 4 -0.957329 7.24962 5.471
117 4 10.9556 7.39366 3.10491
118 4 1.16522 4.37953 3.0727
119 4 -1.68907 5.86073 2.77856
120 4 -3.34586 8.80806 5.4544
121 2 2.32771 7.1581 6.73604
122 2 2.66462 4.35669 8.6143
123 2 2.55635 7.41255 11.3326
124 2 5.09378 6.12698 8.99018
125 2 2.38515 4.42594 11.2761
126 2 4.99943 6.00584 12.4226
127 2 2.64266 4.44209 1.83346
128 2 2.51664 7.55147 0.610582
129 2 5.06819 5.86088 1.68125
130 2 2.75531 7.49366 3.94592
131 2 5.17494 5.81254 6.3873
132 2 2.52398 4.29311 4.56047
133 4 4.13432 7.54815 9.85362
134 4 3.93412 4.37262 10.1048
135 4 5.89706 4.60887 7.60727
136 4 3.44298 5.89801 7.57058
137 4 5.57043 7.3296 7.59144
138 4 1.63066 5.97556 10.4819
139 4 4.06371 4.46743 0.702967
140 4 6.77105 5.68373 0.659274
141 4 3.18053 5.91656 12.265
142 4 0.80115 7.62503 12.3638
143 4 3.56349 8.59322 12.3107
144 4 4.31784 7.37122 0.883308
145 4 1.73545 5.94857 5.32531
146 4 4.0557 7.16733 5.30754
147 4 0.918917 7.51796 2.93326
148 4 5.96609 4.60952 2.83205
149 4 3.37687 5.84056 2.70462
150 4 1.94175 8.69255 5.41008
151 2 7.6463 7.37073 6.75827
152 2 7.68242 4.21713 8.38531
153 2 7.66597 7.53089 10.9668
154 2 10.0716 5.95988 9.31734
155 2 7.38144 4.47175 10.9028
156 2 9.66299 5.83366 12.7322
157 2 7.63292 4.39515 1.82533
158 2 7.66338 7.26317 0.7568
159 2 9.98188 5.87442 1.68307
160 2 7.43649 7.17574 4.10904
161 2 10.2033 5.91747 6.58064
162 2 7.74465 4.34767 4.56453
163 4 9.13348 7.78828 9.81458
164 4 8.98997 4.50306 9.72868
165 4 10.9945 4.5354 7.80773
166 4 8.64206 5.85753 7.55708
167 4 10.8829 7.1611 7.85372
168 4 6.82922 6.09027 9.59636
169 4 9.0359 4.69673 0.666293
170 4 11.5897 5.44377 0.617894
171 4 8.22361 6.05208 11.9882
172 4 6.0158 7.36603 11.7136
173 4 8.59105 8.66691 12.2074
174 4 9.6325 7.44903 0.94248
175 4 6.7172 6.09379 5.35776
176 4 9.38148 7.38203 5.52755
177 4 5.816 7.56444 2.86329
178 4 11.1458 4.40293 2.86895
179 4 8.43991 5.67919 3.07947
180 4 7.04673 8.70011 5.42421
181 2 -5.08747 11.6992 6.85538
182 2 -5.16658 8.95531 8.63923
183 2 -5.07502 11.822 11.2828
184 2 -2.47783 10.3994 9.41429
185 2 10.162 8.84885 11.1161
186 2 -2.27935 10.3905 12.5091
187 2 -4.9003 8.78359 1.9597
188 2 -4.98906 11.9533 0.479458
189 2 -2.44654 10.0776 2.2569
190 2 -4.86524 11.7751 4.08923
191 2 -2.41116 10.1963 6.55055
192 2 -4.98739 8.81567 4.42581
193 4 -3.43957 12.0808 10.0577
194 4 -3.51444 8.65459 10.076
195 4 -1.95039 9.00886 7.83068
196 4 -4.14706 10.3601 7.68615
197 4 -1.82749 11.6946 7.64564
198 4 -5.79474 10.3413 10.1481
199 4 -3.39175 8.92041 0.923305
200 4 -1.15133 10.2261 1.02238
201 4 -4.22232 10.1989 12.0136
202 4 -6.50281 11.8044 12.8379
203 4 -4.17037 12.9824 12.375
204 4 -3.18747 12.1187 0.55225
205 4 -5.80526 10.3136 5.4661
206 4 -3.35092 11.5938 5.34363
207 4 -6.69908 12.0056 2.9943
208 4 -1.49376 8.55497 3.21027
209 4 -4.17286 10.0019 3.11288
210 4 -5.65171 13.1839 5.39545
211 2 -0.0812884 11.6084 6.66588
212 2 -0.0253056 8.73331 8.74208
213 2 0.000109578 11.8844 11.4783
214 2 2.52766 10.173 9.16685
215 2 -0.0702195 8.84911 11.2834
216 2 2.26347 9.93148 12.5525
217 2 -0.0688588 8.77976 1.67138
218 2 0.0854477 11.6919 0.973778
219 2 2.52465 10.3806 1.94058
220 2 0.145828 11.9939 4.02028
221 2 2.36364 10.2211 6.52989
222 2 -0.0821294 8.63544 4.57422
223 4 1.55812 11.9565 10.1318
224 4 1.65786 8.87686 10.477
225 4 3.08357 8.85788 7.69213