ITEM: TIMESTEP
499000
ITEM: NUMBER OF ATOMS
9800
ITEM: BOX BOUNDS pp pp ff
-1.06358e+00 83.06326e-00
-1.09713e-00 83.18461e+00
-1.01641e+00 80.53766e-00
ITEM: ATOMS id type x y z
7522 2 4.413077284 2.198286034 3.697415246
7520 2 3.504507412 2.99053439 1.014286343
7500 1 3.210063472 2.923108998 3.460908443
7523 2 2.478159964 0.71492741 2.694300185
7499 1 3.336253732 3.824923616 2.16419873
7501 1 2.015462344 1.793733682 3.444597629
7524 2 1.897684768 1.363896808 4.790239784
7497 1 6.04513798 4.524462058 2.319151463
7526 2 0.551655328 2.333136818 1.560698612
7502 1 0.543242644 2.156145164 2.996050244
7530 2 0.627369484 -0.869569302 3.126536756
7529 2 -0.281200388 -0.186887208 1.226326925
7521 2 3.033397108 3.723785528 4.602665423
7525 2 0.122608444 3.36980222 3.55061792
7504 1 -0.584057012 -0.330166166 2.580124487
7519 2 2.13323992 4.524462058 1.984779776
7516 2 6.196566292 3.251807784 1.789050008
7515 2 6.280693132 4.347470404 3.697415246
7493 2 9.0316408 4.052484314 2.319151463
1626 2 19.177337704 -1.274121654 5.565003449
1625 2 17.73876874 0.1670961 3.020516465
1605 1 19.110036232 0.622217496 3.681104432
1606 1 19.63162264 -0.04360825 4.871793854
7518 2 4.413077284 5.611696504 0.908266052
7498 1 4.514029492 4.937442584 2.147887916
7517 2 4.160696764 5.872969898 3.191780012
7495 2 8.73719686 5.965679812 3.477219257
7492 1 8.602593916 5.39256398 2.188664951
7496 1 7.147199584 5.493702068 1.609631054
7513 2 6.59196244 6.833781734 1.715651345
7514 2 7.09672348 5.173431456 0.198745643
7494 2 9.586877944 6.016248856 1.340502623
2148 2 -0.197073548 11.814832568 3.485374664
2142 2 1.485463252 14.0735832 2.302840649
7078 1 13.978298992 36.585235954 78.719004239
2145 2 -1.071992684 13.719599892 1.797205415
2122 1 0.87133732 15.329381126 2.841097511
2141 2 0.459115804 16.079488612 1.740117566
2143 2 0.013243552 14.806834338 4.994124959
2123 1 -0.483104804 15.051251384 3.705570653
2140 2 2.747365852 15.101820428 4.358003213
4094 2 9.95703604 14.318000246 3.363043559
4069 4 11.277827428 13.433041976 0.109036166
4068 3 11.353541584 13.871307024 0.989820122
4065 1 9.729893572 15.25352756 2.343617684
4066 1 10.057988248 14.376997464 1.095840413
4067 3 9.250370584 14.174721288 0.231367271
4095 2 8.35862608 15.472660084 2.278374428
8311 4 18.781941556 14.730980772 3.273334082
8310 3 19.362416752 14.090439548 3.71372606
2138 2 3.554983516 16.214339396 1.780894601
2137 2 2.251017496 18.102250372 2.221286579
2121 1 1.973398924 16.130057656 3.656638211
2120 1 3.01657174 17.057156796 2.841097511
7106 2 13.692267736 36.222824472 80.04833558
2139 2 1.392923728 16.947590534 4.659753272
2116 1 4.270061656 17.714554368 3.575084141
2117 2 5.41418668 17.579703584 2.800320476
2119 2 4.564505596 17.074013144 4.822861412
2118 2 4.135458712 19.04620586 3.844212572
4093 2 11.740525048 16.231195744 3.314111117
4064 1 10.520685868 16.576750878 2.702455592
4092 2 10.857193228 17.158294884 1.422056693
4063 1 9.881321884 17.756695238 3.624016583
4090 2 8.86338712 18.338239244 2.865563732
4091 2 10.907669332 18.75121977 3.827901758
4089 2 8.240848504 16.374474702 4.798395191
7345 2 0.74514706 27.996926648 2.629056929
7097 2 15.08877328 38.47314693 74.983827833
7346 2 0.400227016 29.45500075 2.2457528
3645 3 -0.777548744 32.211013648 0.745157912
3646 4 -0.634533116 31.3513399 1.063218785
444 4 8.425927552 39.509812332 4.007320712
443 3 8.10624556 39.627806768 3.126536756
3364 4 7.534183048 40.377914254 3.208090826
1765 2 14.466234664 34.613043238 2.596435301
1768 2 12.581793448 33.938789318 3.836057165
1746 1 13.481950636 35.683421336 4.912570889
1747 1 13.515601372 34.983882894 3.575084141
4708 2 4.244823604 9.050391496 12.52156562
2149 2 -0.39056528 12.084534136 6.135881939
4709 2 5.632916464 10.795023514 12.097484456
7080 1 16.510516876 35.750846728 78.670071797
4078 2 9.62052868 15.750789826 11.102524802
7104 2 13.885759468 38.995693718 78.131814935
8330 2 20.380351516 14.461279204 9.871058345
4741 2 0.526417276 16.315477484 11.143301837
4740 2 1.409749096 17.630272628 12.823315679
4719 1 -0.382152596 19.181056644 10.939416662
4745 2 -0.121359392 18.489946376 9.773193461
4744 2 0.888162688 19.610893518 11.412430268
4084 2 6.659263912 18.683794378 7.481524094
4085 2 7.407992788 16.509325486 7.187929442
4082 2 7.567833784 17.301573842 9.756882647
4060 1 7.828626988 17.874689674 7.408125431
4088 2 10.37767024 16.68631714 5.75257781
4059 1 8.476403656 17.975827762 8.900564912
4080 2 10.932907384 18.237101156 8.819010842
4081 2 10.0832263 16.155342178 8.484639155
4058 1 9.898147252 17.335286538 9.25940282
4062 1 9.32608474 17.335286538 5.051212808
4061 1 8.627831968 18.346667418 6.103260311
4087 2 9.696242836 19.181056644 6.617050952
4083 2 8.392276816 19.315907428 9.25940282
4086 2 7.820214304 19.223197514 5.361118274
4079 2 11.706874312 16.441900094 10.662132824
4057 1 10.369257556 16.905449664 10.735531487
469 2 13.330522324 19.619321692 6.013550834
4074 2 11.479731844 19.745744302 11.004659918
442 3 15.189725488 21.802218758 6.250057637
4886 2 16.325437828 20.94254501 8.027936363
470 2 14.003537044 19.071490382 8.321531015
440 1 14.272742932 19.754172476 7.130841593
441 1 15.3411538 20.807694226 6.918801011
8332 2 18.950195236 15.96992235 7.310260547
8331 2 18.840830344 16.248052092 9.83028131
2986 3 11.858302624 28.14863378 9.332801483
6258 2 17.292896488 24.954355834 9.732416426
6231 1 18.016387312 25.696035146 10.72737608
6262 2 15.88797826 27.356385424 9.300179855
6232 1 18.176228308 27.17939377 10.091254334
6233 1 16.914325708 28.10649291 9.928146194
6260 2 19.1268616 27.836791342 11.004659918
6261 2 18.866068396 27.01083029 8.843477063
2985 1 12.421952452 29.025163876 9.99338945
3014 2 10.58798734 30.483237978 10.735531487
2984 1 11.740525048 30.500094326 9.936301601
3013 2 12.64909492 31.326055378 10.613200382
3011 2 10.907669332 30.036544756 7.70987549
3012 2 12.623856868 31.545187902 7.979003921
2983 1 11.404017688 31.09849468 8.52541619
3009 2 9.07370422 31.764320426 8.52541619
2982 1 10.318781452 32.354292606 8.264443166
3008 2 10.571161972 33.340388964 10.441936835
3010 2 10.37767024 32.522856086 6.853557755
3007 2 11.84988994 34.225347234 8.753767586
2981 1 10.537511236 33.694372272 9.006585203
7325 2 14.802742024 36.509382388 4.888104668
2394 2 12.56496808 28.730177786 11.404274861
2987 3 13.944648256 29.252724574 9.234936599
2988 4 13.709093104 28.679608742 8.549882411
6235 3 17.057341336 30.533807022 9.683483984
6234 1 16.880674972 29.45500075 9.145227122
6263 2 16.443215404 28.544757958 11.192234279
6237 4 16.821786184 30.348387194 7.54676735
6236 3 16.762897396 29.379147184 7.758807932
2980 1 9.544814524 34.97545472 8.982118982
3005 2 8.215610452 34.461336106 9.202314971
3006 2 9.53640184 35.641280466 7.70987549
2978 1 9.687830152 37.689326748 9.968923229
3002 2 10.84036786 38.186589014 9.283869041
3001 2 8.560530496 37.975884664 9.120760901
2979 1 9.771956992 36.087973688 10.091254334
3004 2 11.09274838 35.953122904 10.678443638
3003 2 8.77926028 35.767703076 11.126991023
2998 2 10.192591192 40.647615822 10.229896253
1766 2 13.086554488 35.43900429 6.16034816
9788 2 17.334959908 38.945124674 7.505990315
9787 2 16.872262288 37.731467618 7.979003921
5155 3 0.433877752 4.625600146 13.369727948
5156 4 -0.441041384 4.954298932 13.182153587
256 4 0.274036756 4.052484314 14.103714578
6352 2 19.656860692 14.24214668 21.272317331
8452 4 13.49036332 0.057529838 16.321985282
9731 2 17.242420384 1.920156292 12.578653469
9732 2 17.090992072 0.681214714 12.953802191
8451 3 14.609250292 -0.111033642 16.444316387
4707 1 5.060853952 9.994346984 13.149531959
4710 2 6.162915556 9.336949412 13.687788821
4728 2 3.706411828 9.766786286 15.106829639
4731 2 3.697999144 12.649221794 12.855937307
4736 2 1.056416368 13.69431537 12.562342655
4711 1 4.345775812 10.803451688 14.283133532
4712 1 3.218476156 11.974967874 14.014005101
4737 2 2.520223384 15.37995017 13.149531959
4730 2 1.931335504 11.427136564 13.638856379
4713 1 2.915619532 13.070630494 15.090518825
4733 2 4.076569924 13.930304242 15.13129586
4732 2 2.738953168 12.497514662 16.387228538
4714 1 1.58641546 14.023014156 14.927410685
4734 2 0.433877752 13.323475714 15.367802663
4715 1 1.275146152 14.70569625 13.540991495
4735 2 1.788319876 15.093392254 15.873437897
4729 2 5.321647156 11.393423868 15.090518825
4738 2 -1.164532208 14.992254166 13.035356261
7255 2 16.628294452 11.738979002 10.017855671
8327 2 19.833527056 16.062632264 12.309525038
6331 4 19.404480172 17.99268411 16.909174586
7094 2 15.862740208 40.79089478 74.592368297
6328 1 19.051147444 16.205911222 17.137525982
6357 2 19.017496708 13.90501972 16.411694759
6329 3 17.881784368 16.450328268 17.113059761
6327 1 19.623209956 14.781549816 17.33325575
7256 2 16.577818348 12.059249614 11.436896489
4717 1 0.1983226 16.972875056 12.382923701
4718 1 -0.878500952 18.093822198 12.015930386
4716 1 0.03006892 15.742361652 13.377883355
4739 2 -0.171835496 16.273336614 14.650126847
4742 2 -1.198182944 18.768076118 13.280018471
4056 1 10.352432188 17.857833326 12.048552014
4076 2 10.512273184 16.98130323 13.198464401
4077 2 9.0316408 18.397236462 12.089329049
4075 2 12.724809076 18.346667418 12.333991259
4055 1 11.437668424 19.029349512 12.203504747
4073 2 11.126399116 19.155772122 14.584883591
4054 1 11.286240112 19.998589522 13.467592832
4072 2 10.108464352 20.765553356 13.312640099
4053 1 12.514491976 21.001542228 13.834586147
4070 2 11.93401678 21.852787802 14.854012022
4051 2 14.802742024 20.403141874 13.149531959
4049 1 14.020362412 20.748697008 14.226045683
4050 2 14.0792512 19.661462562 15.155762081
4052 2 14.701789816 21.82750328 14.88663365
4071 2 12.581793448 21.82750328 12.611275097
6259 2 17.183531596 25.881454974 11.877288467
6256 2 18.765116188 23.521566254 11.62447085
6230 1 19.227813808 24.802648702 11.265632942
363 2 9.603703312 32.82627035 16.827620516
367 2 12.581793448 32.396433476 16.428005573
370 2 14.054013148 33.095971918 14.038471322
353 2 4.143871396 35.624424118 14.813234987
330 1 2.394033124 38.026453708 14.030315915
351 2 4.715933908 38.397293364 14.128180799
333 2 2.360382388 37.54604779 12.676518353
334 1 3.655935724 37.959028316 14.911099871
335 1 4.093395292 36.61894865 15.775573013
336 1 5.531964256 36.930791088 16.362762317
332 2 1.939748188 39.299107982 13.834586147
352 2 3.487682044 38.961981022 16.020235223
331 2 1.241495416 37.487050572 14.796924173
357 2 5.54037694 35.531714204 18.287438369
354 2 3.10069858 36.205968124 16.68082319
355 2 6.533073652 37.259489874 15.294404
356 2 5.464662784 38.077022752 17.292478715
337 1 6.390058024 35.851984816 17.17014761
358 2 6.533073652 34.697324978 16.313829875
342 1 12.110683144 33.58480601 15.661397315
368 2 11.328303532 33.0369747 14.666437661
364 2 9.090529588 34.672040456 15.522755396
2999 2 9.780369676 37.731467618 12.456322364
341 1 11.404017688 34.528761498 16.737911039
340 1 9.83084578 34.309628974 16.648201562
2977 1 9.49433842 38.532144148 11.314565384
3000 2 8.240848504 39.012550066 11.485828931
366 2 11.631160156 35.868841164 16.525870457
2997 2 11.84988994 39.425530592 11.200389686
371 2 12.657507604 35.590711422 13.434971204
2976 1 10.487035132 39.804798422 11.436896489
2994 2 9.166243744 39.518240506 14.544106556
2990 2 10.066400932 40.175638078 17.349566564
348 3 16.485278824 39.14740085 12.007774979
349 3 16.93956376 37.015072828 11.591849222
375 2 14.070838516 37.88317475 12.660207539
373 2 16.375913932 35.304153506 14.120025392
374 2 15.013059124 34.93331385 12.285058817
345 1 15.164487436 35.759274902 13.549146902
347 1 16.30861246 37.92531562 12.154572305
344 1 13.860521416 35.514857856 14.372843009
372 2 13.751156524 36.644233172 15.310714814
346 1 15.290677696 37.301630744 13.296329285
343 1 13.49036332 34.107352798 15.017120162
376 2 15.618772372 38.077022752 14.356532195
369 2 14.306393668 34.04835558 16.27305284
7099 2 12.876237388 40.428483298 75.742280684
2425 2 13.498776004 15.371521996 20.399688782
6355 2 18.024799996 14.301143898 19.086668255
6326 1 19.438130908 14.149436766 18.793073603
4757 2 4.514029492 18.700650726 17.961222089
4755 2 3.874665508 17.124582188 19.363952093
4754 1 4.337363128 18.422520984 19.339485872
4758 1 5.49831352 18.66693803 20.35075634
4756 2 3.243714208 19.155772122 19.77987785
4776 2 6.667676596 17.883117848 20.081627909
4777 2 6.053550664 20.630702572 19.086668255
4759 1 6.17132824 20.209293872 20.440465817
4775 2 5.178631528 18.464661854 21.704553902
4780 2 5.733868672 21.094252142 22.6342703
4779 2 4.076569924 21.2375311 21.08474297
4760 1 5.473075468 21.347097362 21.304938959
4778 2 7.525770364 20.158724828 20.742215876
4782 2 5.010377848 23.445712688 19.983763025
4761 1 5.809582828 22.931594074 21.027655121
4785 2 4.690695856 25.83088593 21.174452447
4784 2 4.65704512 23.664845212 22.984952801
4762 1 5.843233564 23.968259476 22.234655357
4763 1 5.826408196 25.57804071 22.038925589
4786 2 5.515138888 26.117443846 23.343790709
4783 2 6.88640638 23.614276168 23.148060941
4781 2 7.164024952 22.914737726 20.505709073
4788 2 7.668785992 25.594897058 20.440465817
4764 1 7.147199584 26.2944355 21.557756576
4787 2 8.10624556 26.100587498 22.601648672
4791 2 9.485925736 28.114921084 21.101053784
4790 2 6.785454172 27.921073082 19.812499478
4765 1 7.05466006 27.870504038 21.198918668
2042 4 15.736549948 27.5586616 21.729020123
2041 3 16.115120728 27.541805252 22.585337858
4766 1 8.291324608 28.814459526 21.484357913
4794 2 8.114658244 28.350909956 23.882047571
4789 2 5.927360404 28.460476218 21.90028367
4767 1 8.44275292 29.41285988 22.993108208
4792 2 8.27449924 29.952263016 20.603573957
4795 2 10.781479072 29.143158312 23.474277221
4768 1 9.771956992 30.120826496 23.457966407
4793 2 7.399580104 30.407384412 23.107283906
4796 2 10.133702404 31.064781984 22.463006753
362 2 8.48481634 33.947217492 18.540255986
4772 3 11.395605004 33.989358362 23.409033965
360 2 8.44275292 37.217349004 16.917329993
338 1 7.879103092 36.15539908 17.708404472
359 2 7.761325516 36.677945868 19.037735813
365 2 11.9760802 34.098924624 17.98568831
339 1 9.056878852 35.05973646 17.871512612
361 2 10.066400932 35.590711422 18.695208719
1078 2 20.170034416 -2.757480278 18.5565668
6257 2 19.623209956 25.443189926 12.472633178
7108 2 15.88797826 37.46176605 77.332585049
2385 2 17.587340428 2.173001512 0.04379291
7109 2 16.022581204 37.782036662 79.518234125
9775 2 19.7578129 0.92563176 25.65177089
7259 2 0.080545024 6.218525032 28.954710725
7260 2 1.16578126 7.196193216 28.661116073
2429 2 9.805607728 12.632365446 26.190027752
4887 2 19.236226492 12.160387702 28.930244504
4888 2 17.864959 11.663125436 28.530629561
4412 2 1.216257364 21.40609458 29.370636482
4405 2 3.7737133 21.136393012 30.936474626
4411 2 0.088957708 23.378287296 29.370636482
7266 2 15.189725488 22.88102503 27.005568452
4800 2 12.034968988 31.722179556 24.67312205
4797 2 8.375451448 31.376624422 25.260311354
4769 1 9.696242836 30.980500244 24.819919376
4770 1 10.697352232 32.1941573 24.779142341
4798 2 10.184178508 30.095541974 25.839345251
4799 2 10.604812708 32.82627035 26.067696647
4332 2 13.271633536 30.795080416 30.088312298
4771 1 10.487035132 33.508952444 23.955446234
4333 2 12.716396392 28.78074683 29.313548633
4334 2 11.168462536 30.42424076 29.362481075
4331 1 12.245286088 29.842696754 30.05569067
269 2 18.983845972 32.82627035 31.482886895
7079 1 15.50940748 36.947647436 78.531429878
1624 2 19.311940648 2.046578902 3.053138093
8172 2 4.917838324 40.428483298 27.519359093
6104 2 -0.146597444 39.745801204 29.068886423
8152 2 7.618309888 39.914364684 27.095277929
4773 3 9.174656428 33.955645666 23.751561059
4774 4 9.36814816 34.756322196 23.180682569
9798 2 13.549252108 38.616425888 26.132939903
7265 2 0.055306972 3.681644658 32.396292479
9711 2 -0.188660864 4.743594582 33.089502074
3174 3 20.001780736 4.035627966 31.833569396
9063 4 17.166706228 -0.347022514 34.696117253
1878 2 13.692267736 14.191577636 29.786562239
1777 2 12.514491976 17.200435754 28.840535027
1783 2 10.487035132 16.248052092 30.080156891
1752 1 12.321000244 14.78997799 29.615298692
1751 1 11.824651888 16.020491394 29.639764913
1775 2 11.437668424 13.534180064 29.819183867
4409 2 1.056416368 20.8161224 31.858035617
4388 1 0.206735284 22.189914762 30.096467705
4387 1 0.820861216 22.392190938 31.482886895
4386 1 2.276255548 23.083301206 31.254535499
4406 2 3.201650788 21.473519972 33.081346667
4385 1 3.428793256 22.181486588 31.84988021
4402 2 6.247042396 22.189914762 30.536859683
4401 2 5.607678412 20.723412486 32.396292479
4383 1 6.00307456 22.088776674 32.004832943
4399 2 8.409102184 21.57465806 32.298427595
4410 2 0.231973336 22.973734944 32.575711433
4408 2 2.17530334 24.364383654 31.890657245
4404 2 4.816886116 24.305386436 31.499197709
4407 2 2.461334596 23.496281732 29.794717646
4384 1 4.766410012 22.999019466 32.306583002
4403 2 4.640219752 23.30243373 33.660380564
4381 2 8.804498332 23.993543998 31.678616663
4380 2 8.871799804 24.153679304 33.986596844
4379 2 7.164024952 24.844789572 32.804062829
4378 1 7.9800553 23.85026504 32.812218236
4400 2 7.206088372 22.055063978 34.174171205
4382 1 7.349104 22.37533459 32.82852905
4352 2 10.5038605 28.73860596 31.556285558
4353 2 12.77528518 28.376194478 31.964055908
4335 1 11.841477256 29.37071901 31.531819337
4356 2 9.797195044 29.429716228 33.962130623
4336 1 11.715286996 30.449525282 32.722508759
4354 2 10.899256648 31.570472424 32.371826258
4357 2 11.833064572 28.671180568 34.426988822
4355 2 13.061316436 30.938359374 32.934549341
4337 1 11.17687522 29.842696754 34.084461728
4338 1 11.420843056 30.870933982 35.299617371
4359 2 11.63957284 32.160444604 34.736894288
4358 2 12.657507604 30.5085225 35.911272896
4985 2 19.219401124 34.436051584 34.011063065
4960 1 19.682098744 33.58480601 35.063110568
4986 2 19.7578129 34.393910714 36.164090513
4984 2 18.807179608 31.452477988 34.272036089
4959 1 18.4959103 32.472287042 35.209907894
4983 2 17.250833068 32.969549308 34.883691614
4980 2 17.461150168 29.775271362 35.560590395
6081 1 -0.68500922 37.92531562 31.662305849
4267 2 6.734978068 41.111165392 34.696117253
7101 2 13.187506696 36.972931958 75.48130766
6100 2 0.778797796 38.026453708 31.678616663
6097 2 -1.06358 38.616425888 34.035529286
6077 2 0.652607536 40.504336864 33.048725039
6099 2 -0.987865844 36.677945868 32.298427595
6076 1 -0.668183852 40.53804956 32.632799282
4265 2 6.911644432 38.843986586 36.367975688
4245 1 7.786563568 41.026883652 35.642144465
4246 1 9.124180324 40.470624168 34.932624056
4269 2 9.014815432 40.293632514 33.538049459
4268 2 9.427036948 39.138972676 35.389326848
4247 1 10.453384396 41.321869742 35.177286266
4270 2 10.54592392 41.650568528 36.514773014
4271 2 11.59750942 40.479052342 34.875536207
1533 2 16.746072028 38.0938791 29.9741366
7322 2 3.302602996 0.96777263 36.449529758
7321 2 3.512920096 1.8527309 37.738084064
9072 2 9.561639892 -0.178459034 40.396746746
9074 2 11.72369968 0.327231406 42.386666054
9076 2 12.430365136 0.015388968 39.768780407
9071 2 8.964339328 1.111051588 42.582395822
9050 1 8.678308072 -0.245884426 42.639483671
9070 2 7.365929368 -0.406019732 42.060449774
1107 2 19.1268616 -0.894853824 40.959469829
4825 2 19.194163072 4.499177536 42.835213439
1394 2 -0.971040476 17.352142886 40.788206282
1392 2 -0.239136968 15.818215218 38.390516624
4862 2 18.462259564 17.208863928 39.768780407
4861 2 19.84193974 16.838024272 39.10819244
1770 2 3.916728928 19.501327256 39.687226337
1393 2 -0.079295972 18.388808288 38.904307265
4371 2 11.664810892 27.423810816 41.595591575
4366 2 9.359735476 27.9800703 39.646449302
4344 1 10.806717124 28.452048044 42.12569303
4969 2 18.32765662 27.567089774 42.835213439
4973 2 15.744962632 28.23291552 40.298881862
4976 2 18.655751296 28.78074683 39.956354768
4978 2 17.326547224 28.10649291 37.672840808
4361 2 10.394495608 32.354292606 36.971475806
4360 2 9.065291536 31.115351028 35.658455279
4339 1 10.285130716 31.05635381 36.41690813
4362 2 9.586877944 28.629039698 36.873610922
4363 2 11.446081108 29.606707882 37.941969239
4340 1 10.0832263 29.867981276 37.460800226
4367 2 8.02211872 29.589851534 40.731118433
4365 2 7.929579196 30.516950674 38.37420581
4364 2 9.70465552 31.595756946 39.148969475
4341 1 9.250370584 30.331530846 38.724888311
4342 1 9.292434004 29.353862662 40.013442617
4368 2 11.664810892 29.943834842 40.470145409
4369 2 10.032750196 30.84564946 41.832098378
4343 1 10.411320976 29.648848752 41.081800934
4958 1 18.41178346 31.806461296 36.653414933
4957 1 18.176228308 30.21353641 36.767590631
4956 1 17.36019796 29.522426142 37.958280053
4975 2 18.142577572 30.997356592 39.736158779
4982 2 19.614797272 32.06773469 37.371090749
4979 2 19.438130908 29.556138838 36.702347375
4955 1 17.629403848 29.699417796 39.532273604
4954 1 16.451628088 29.446572576 40.592476514
4981 2 17.36019796 32.379577128 37.354779935
4977 2 15.997343152 30.036544756 37.835948948
4953 1 16.762897396 29.37071901 42.174625472
4974 2 15.50940748 30.483237978 40.388591339
4262 2 5.094504688 40.95945826 37.004097434
4261 2 5.944185772 38.313011624 38.716732904
4238 2 4.757997328 38.59956954 41.783165936
4243 1 6.196566292 40.605474952 37.844104355
4242 1 5.717043304 39.669947638 39.034793777
4260 2 4.303712392 39.796370248 39.157124882
4237 1 6.179740924 38.700707628 41.55481454
4241 1 6.42370876 39.846939292 40.478300816
4244 1 7.374342052 40.099784512 36.857300108
4239 2 6.583549756 37.428053354 41.130733376
4259 2 7.862277724 39.931221032 40.160239943
4264 2 8.476403656 39.838511118 37.689151622
4240 2 6.7181527 38.877699282 42.835213439
7257 2 18.2855932 36.138542732 38.708577497
2424 2 8.350213396 4.566602928 44.849598968
9069 2 9.8729092 -0.439732428 44.73542327
9068 2 7.60148452 0.1670961 44.776200305
1875 2 11.59750942 -0.616724082 48.299336129
9049 1 8.543705128 -0.751574866 44.172700187
8215 3 4.589743648 10.95515882 44.971930073
8214 1 5.144980792 10.002775158 44.556004316
8216 3 4.471966072 8.814402624 44.140078559
8217 4 3.5633962 9.084104192 44.401051583
8240 2 6.347994604 9.60665098 46.978160195
8213 1 6.684501964 9.851068026 44.604936758
8242 2 7.079898112 10.643316382 43.561044662
8241 2 7.349104 11.545131 46.309416821
8243 2 6.995771272 8.485703838 44.343963734
8212 1 7.281802528 10.205051334 46.032132983
8237 2 8.829736384 10.213479508 48.658174037
8211 1 8.762434912 9.615079154 46.309416821
8238 2 9.519576472 9.910065244 45.14319362
8210 1 9.628941364 9.994346984 47.58981572
8236 2 10.37767024 8.746977232 47.899721186
8239 2 8.602593916 8.1738614 46.268639786
8209 1 10.789891756 11.1237223 47.532727871
8234 2 11.7657631 10.466324728 46.643788508
8235 2 11.420843056 11.1237223 48.821282177
4826 2 20.405589568 5.047008846 43.234828382
8232 2 9.57846526 12.68293449 45.95873432
8208 1 10.386082924 12.59865275 47.165734556
8230 2 12.674332972 12.89363884 46.195241123
8233 2 9.603703312 13.10434319 48.250403687
8207 1 11.664810892 13.517323716 46.929227753
8231 2 12.262111456 13.803881632 48.193315838
8229 2 11.00862154 14.570845466 44.841443561
8206 1 11.311478164 14.907972426 46.219707344
8226 2 12.968776912 16.39133105 47.483795429
8205 1 12.455603188 16.01206322 46.211551937
8228 2 10.074813616 15.46423191 46.741653392
8225 2 11.757350416 17.124582188 44.16454478
9786 2 16.207660252 16.568322704 48.601086188
8227 2 13.540839424 15.405234692 45.526497749
8204 1 12.127508512 17.40271193 45.502031528
8224 2 11.117986432 18.152819416 45.999511355
8203 1 13.347347692 18.523659072 45.30630176
8202 1 13.086554488 19.88902326 44.556004316
8221 2 12.06020704 20.60541805 45.200281469
8220 2 12.531317344 19.535039952 43.226672975
8544 3 8.594181232 21.61679893 45.110571992
8568 2 9.544814524 22.088776674 48.103606361
8546 4 7.231326424 20.234578394 46.097376239
8545 3 6.734978068 21.06896762 46.268639786
8543 1 7.618309888 21.95392589 45.689605889
8219 2 15.442106008 20.01544587 43.993281233
8223 2 13.776394576 18.717507074 46.660099322
8222 2 14.356869772 17.82412063 44.604936758
8198 2 15.315915748 21.254387448 46.480680368
8201 1 14.356869772 20.866691444 44.319497513
8218 2 14.028775096 21.515660842 43.047254021
8200 2 13.692267736 22.746174246 46.04028839
8197 1 14.659726396 21.95392589 45.436788272
8199 2 15.644010424 22.830455986 44.849598968
749 2 -0.903739004 29.6657051 51.104796137
8540 1 9.317672056 23.462569036 48.40535642
4370 2 9.586877944 27.81150682 42.394821461
8567 2 10.301956084 24.221104696 47.703991418
8569 2 6.911644432 23.209723816 48.454288862
8541 1 7.921166512 23.799695996 47.679525197
8542 1 7.626722572 23.42885634 46.146308681
8570 2 7.736087464 25.19877288 47.793700895
8572 2 8.417514868 24.27167374 45.371545016
8571 2 6.272280448 23.698557908 45.771159959
4372 2 12.01814362 27.701940558 44.034058268
4345 1 11.521795264 28.915597614 43.487645999
4377 2 8.98957738 28.013782996 44.955619259
4951 2 17.536864324 29.168442834 45.208436876
4950 2 17.166706228 26.96868942 45.232903097
4948 1 16.762897396 28.157061954 44.621247572
4970 2 16.047819256 27.05297116 42.525307973
4952 1 16.973214496 28.047495692 43.0227878
4949 2 15.484169428 28.409907174 45.06163955
745 2 1.569590092 31.300770856 49.79177561
4376 2 8.333388028 30.053401104 43.985125826
4347 1 9.183069112 29.45500075 44.963774666
4350 3 8.922275908 29.842696754 47.418552173
4351 4 8.165134348 29.851124928 48.054673919
4348 1 8.266086556 29.733130492 46.195241123
4373 2 12.640682236 29.631992404 43.039098614
4349 3 7.063072744 29.808984058 46.129997867
4375 2 10.865605912 31.090066506 44.449984025
4346 1 10.705764916 29.690989622 44.637558386
4374 2 11.42925574 29.353862662 45.869024843
733 2 7.206088372 34.815319414 47.002626416
707 2 12.464015872 35.27044081 45.885335657
706 1 11.202113272 34.967026546 46.545923624
708 2 11.462906476 33.75336949 47.198356184
709 2 10.234654612 34.621471412 45.575430191
4971 2 17.831308264 30.264105454 42.460064717
4972 2 15.59353432 30.011260234 42.794436404
2219 1 0.11419576 41.25444435 46.081065425
2242 2 -0.05405792 40.689756692 47.353308917
2243 2 2.150065288 40.470624168 44.971930073
97 2 -0.987865844 4.25476049 54.130452134
2248 2 4.65704512 40.2009226 46.594856066
2245 2 2.494985332 40.377914254 47.916032
2240 2 -0.13818476 39.004121892 44.825132747
729 2 9.098942272 36.981360132 46.162619495
730 2 9.729893572 38.313011624 47.899721186
728 2 11.984492884 37.20892083 47.402241359
711 1 9.561639892 36.939219262 47.549038685
710 1 10.932907384 36.189111776 47.565349499
732 2 7.172437636 37.41962518 48.177005024
712 1 8.282911924 36.517810562 48.437978048
116 2 -0.163422812 6.033105204 52.980539747
68 4 10.428146344 1.8527309 53.290445213
66 3 8.897037856 2.181429686 54.945992834
65 1 9.973861408 1.64202655 55.149878009
5844 2 13.650204316 2.012866206 50.150613518
5862 2 13.961473624 -0.524014168 50.126147297
67 3 10.941320068 1.59988568 54.11414132
5864 2 14.356869772 -0.060464598 53.21704655
5863 2 16.274961724 -0.237456252 50.011971599
5841 1 14.886868864 1.633598376 50.664404159
5843 2 15.795438736 2.10557612 49.71022154
5845 1 15.071947912 0.057529838 50.811201485
5842 2 15.114011332 2.40056221 51.838782767
5865 2 16.544167612 -0.439732428 52.638012653
2218 1 -0.752310692 40.361057906 45.069794957
5846 1 15.189725488 -0.71786217 52.230242303
7318 2 9.132593008 12.244669442 53.518796609
7485 2 19.867177792 9.235811324 50.949843404
7482 2 19.539083116 7.111911476 52.695100502
7486 2 17.755594108 9.126245062 53.070249224
7487 2 18.992258656 10.668600904 54.203850797
7491 2 15.963692416 11.20800404 53.420931725
7459 1 18.773528872 10.095485072 52.907141084
7460 1 18.007974628 11.309142128 52.099755791
7489 2 17.69670532 10.719169948 50.794890671
7464 3 15.63559774 14.309572072 53.339377655
7462 1 16.720833976 13.475182846 53.363843876
7461 1 16.737659344 12.109818658 52.589080211
7465 4 15.871152892 14.907972426 54.03258725
7488 2 19.059560128 12.286810312 51.904026023
7463 3 17.663054584 13.643746326 54.057053471
7490 2 15.938454364 12.362663878 51.414701603
4877 2 3.252126892 21.540945364 50.786735264
8555 2 12.388301716 18.304526548 54.432202193
8562 2 11.30306548 20.68969979 49.653133691
8560 2 12.455603188 19.391760994 51.471789452
8534 1 12.43877782 19.712031606 54.538222484
8565 2 8.52687976 23.167582946 50.713336601
8536 1 12.034968988 20.655987094 51.977424686
8535 1 11.462906476 20.327288308 53.429087132
8557 2 10.428146344 19.34119195 53.208891143
8558 2 10.773066388 21.473519972 53.893945331
8561 2 9.713068204 20.807694226 51.267904277
8537 1 10.983383488 21.296528318 50.900910962
8538 1 10.916082016 22.864168682 50.599160903
8559 2 13.19591938 21.456663624 51.928492244
8556 2 13.801632628 20.125012132 54.203850797
8539 1 9.628941364 23.631132516 49.971194564
8563 2 11.05068496 23.445712688 51.928492244
8564 2 12.043381672 23.192867468 49.824397238
8566 2 9.771956992 25.021781226 50.215856774
746 2 1.788319876 30.356815368 51.936647651
720 1 -0.079295972 31.949740254 51.496255673
747 2 -0.255962336 31.949740254 52.915296491
719 1 1.426574464 31.553616076 51.235282649
742 2 3.655935724 32.708275914 49.38400526
743 2 2.823080008 32.623994174 52.907141084
741 2 4.177522132 30.946787548 50.680714973
718 1 2.545461436 32.632422348 51.545188115
744 2 2.158477972 33.989358362 51.235282649
739 2 5.725455988 32.295295388 52.262863931
717 1 3.933554296 32.430146172 50.713336601
740 2 4.917838324 34.38548254 51.952958465
716 1 5.212282264 33.171825484 51.25974887
715 1 6.457359496 33.492096096 50.289255437