      17
 i =        0, time =        0.000, E =       -23.2275930999
 Li         9.5321993920        8.4937377725       10.0492517325
  H         7.0331264060        9.4717716895        8.4419850975
  C         7.7346383860       10.3072814575        8.4187179755
  H         7.2385741510       11.2178518565        8.7744815905
  H         8.0993242380       10.4582691305        7.3962030155
  O         8.8193783160        9.9672299355        9.2883062715
  C         9.8296038560       10.9786258985        9.3616977155
  H         9.3609364480       11.9728127195        9.3855828695
  H        10.4885517550       10.9044335305        8.4826307655
  C        10.6248313930       10.7642846185       10.6458249755
  H        11.5476085320       11.3601516875       10.6053902845
  H        10.0312925510       11.0660226205       11.5230133465
  O        10.9484941310        9.3732397535       10.7435478355
  C        12.0793589410        9.1068920895       11.5792676955
  H        12.9668735940        9.6145352745       11.1840206575
  H        11.8838647510        9.4441003025       12.6037969845
  H        12.2366017420        8.0271872805       11.5679755325
      17
 i =      100, time =       20.000, E =       -23.2132112710
 Li         9.6156443946        8.4132649960       10.0186342285
  H         7.0588726176        9.5074807889        8.3675716682
  C         7.8154552470       10.3042119094        8.4277390740
  H         7.2316285327       11.2435751902        8.6676768363
  H         8.1987286202       10.4662618405        7.4172695794
  O         8.7922810593        9.9271262541        9.3607849208
  C         9.7553994192       11.0046966959        9.3821455131
  H         9.3149362989       12.0083870600        9.4708052076
  H        10.4063246184       10.8953513705        8.5124728280
  C        10.6752360770       10.8063090976       10.6103676111
  H        11.6350903800       11.3102088511       10.4906106739
  H        10.1294802328       11.2053744629       11.4591243240
  O        10.9547148811        9.4269157383       10.7023823347
  C        12.0189253418        9.0762732505       11.5772694985
  H        12.9898956994        9.3480000324       11.2318939695
  H        11.7122413692        9.4681444180       12.5486639706
  H        12.0070182121        8.0130799830       11.6079578401
      17
 i =      200, time =       40.000, E =       -23.2119267633
 Li         9.6550197904        8.4102815707        9.9700921709
  H         7.0610298518        9.4237147006        8.3469797659
  C         7.7879224635       10.2401117381        8.4002135401
  H         7.1526258252       11.1654445116        8.5665101512
  H         8.1871351530       10.4200532157        7.3948481392
  O         8.8077153508        9.9707220574        9.4064236294
  C         9.7441579877       11.0245278985        9.4119228952
  H         9.2467217431       11.9889122625        9.6378212579
  H        10.3603969641       11.0560814265        8.4893157281
  C        10.7334413546       10.8606476379       10.5852016947
  H        11.6493366989       11.4123167441       10.3321894442
  H        10.3056340466       11.2101388004       11.5422920136
  O        10.9553335147        9.4125084108       10.6539143523
  C        11.9619794532        9.0313696131       11.6317057312
  H        12.9090088856        9.2685366514       11.1480733288
  H        11.7328601869        9.5298992872       12.5962503622
  H        12.0005315029        7.9630776156       11.7233322387
      17
 i =      300, time =       60.000, E =       -23.2176405259
 Li         9.6201055759        8.5042302419        9.9034855500
  H         7.1310230946        9.2598765319        8.4713677404
  C         7.7692740239       10.1414181132        8.4242664176
  H         7.1301744585       11.0218790546        8.6182397701
  H         8.1449454645       10.3149321241        7.3934665498
  O         8.8143544839       10.0334833457        9.3719256092
  C         9.7471126151       11.1130883821        9.4347904024
  H         9.1837296270       12.0361752291        9.6871474840
  H        10.2629842559       11.2261407995        8.4520317237
  C        10.7653829767       10.7801296954       10.5545893607
  H        11.6969661772       11.3291676649       10.2893537057
  H        10.4229766885       11.0854591584       11.5739867649
  O        10.9798045248        9.3982979510       10.6667506946
  C        11.9318217299        9.0416739831       11.6553277468
  H        12.9718231873        9.2553794146       11.2331591240
  H        11.7183307521        9.5225448966       12.6334284375
  H        11.8546867539        7.9264128107       11.7521394230
      17
 i =      400, time =       80.000, E =       -23.2133043636
 Li         9.5720560148        8.5662514139        9.8652270976
  H         7.2427705273        9.1606244149        8.5835766004
  C         7.7452147539       10.1150326991        8.4414062405
  H         7.1324014256       10.9291415932        8.7200883626
  H         8.1282223591       10.2281691831        7.4088618438
  O         8.8391499442       10.0299858773        9.3374190752
  C         9.7610549810       11.1601309011        9.4727555766
  H         9.1583188078       12.0372096581        9.6743215836
  H        10.1690419585       11.2856623636        8.4730960867
  C        10.7849383213       10.7954943992       10.5347178485
  H        11.7862912784       11.2130662650       10.3444723085
  H        10.4277765224       11.1567863312       11.5157253734
  O        10.9613612236        9.3641549132       10.6550664385
  C        11.9433595587        9.0314010129       11.6610881972
  H        12.9929676971        9.3678576789       11.4500889010
  H        11.6033826903        9.5326945880       12.5683366840
  H        11.8565667939        7.9303139414       11.8739290474
      17
 i =      500, time =      100.000, E =       -23.2138556719
 Li         9.5978084052        8.4535721452        9.9095934479
  H         7.2628902469        9.1944825164        8.5453054084
  C         7.7197924625       10.1745704883        8.4439477170
  H         7.1558638720       10.9814784298        8.8590231996
  H         8.1464404388       10.3055661391        7.4606731918
  O         8.8902437583       10.0023182397        9.3279606132
  C         9.7602459015       11.0993530035        9.4666766861
  H         9.1957855357       12.0058194277        9.7565884793
  H        10.1949893525       11.3308697701        8.4830322527
  C        10.7753270708       10.8225759895       10.5372447164
  H        11.7525283816       11.2276451900       10.2586264167
  H        10.4664769550       11.2774160536       11.4700303441
  O        10.9491090459        9.3966228689       10.6501202020
  C        11.9028882643        9.0343445914       11.6535267926
  H        12.8369078570        9.4927772220       11.4311202990
  H        11.6843984164        9.4432633089       12.6176741146
  H        11.9169354499        7.9389512889       11.7556972325
