      17
 i =        0, time =        0.000, E =       -23.2275930999
 Li         9.5321993920        8.4937377725       10.0492517325
  H         7.0331264060        9.4717716895        8.4419850975
  C         7.7346383860       10.3072814575        8.4187179755
  H         7.2385741510       11.2178518565        8.7744815905
  H         8.0993242380       10.4582691305        7.3962030155
  O         8.8193783160        9.9672299355        9.2883062715
  C         9.8296038560       10.9786258985        9.3616977155
  H         9.3609364480       11.9728127195        9.3855828695
  H        10.4885517550       10.9044335305        8.4826307655
  C        10.6248313930       10.7642846185       10.6458249755
  H        11.5476085320       11.3601516875       10.6053902845
  H        10.0312925510       11.0660226205       11.5230133465
  O        10.9484941310        9.3732397535       10.7435478355
  C        12.0793589410        9.1068920895       11.5792676955
  H        12.9668735940        9.6145352745       11.1840206575
  H        11.8838647510        9.4441003025       12.6037969845
  H        12.2366017420        8.0271872805       11.5679755325
      17
 i =      100, time =       20.000, E =       -23.2132112710
 Li         9.6156443946        8.4132649960       10.0186342285
  H         7.0588726176        9.5074807889        8.3675716682
  C         7.8154552470       10.3042119094        8.4277390740
  H         7.2316285327       11.2435751902        8.6676768363
  H         8.1987286202       10.4662618405        7.4172695794
  O         8.7922810593        9.9271262541        9.3607849208
  C         9.7553994192       11.0046966959        9.3821455131
  H         9.3149362989       12.0083870600        9.4708052076
  H        10.4063246184       10.8953513705        8.5124728280
  C        10.6752360770       10.8063090976       10.6103676111
  H        11.6350903800       11.3102088511       10.4906106739
  H        10.1294802328       11.2053744629       11.4591243240
  O        10.9547148811        9.4269157383       10.7023823347
  C        12.0189253418        9.0762732505       11.5772694985
  H        12.9898956994        9.3480000324       11.2318939695
  H        11.7122413692        9.4681444180       12.5486639706
  H        12.0070182121        8.0130799830       11.6079578401
      17
 i =      200, time =       40.000, E =       -23.2119267633
 Li         9.6550197904        8.4102815707        9.9700921709
  H         7.0610298518        9.4237147006        8.3469797659
  C         7.7879224635       10.2401117381        8.4002135401
  H         7.1526258252       11.1654445116        8.5665101512
  H         8.1871351530       10.4200532157        7.3948481392
  O         8.8077153508        9.9707220574        9.4064236294
  C         9.7441579877       11.0245278985        9.4119228952
  H         9.2467217431       11.9889122625        9.6378212579
  H        10.3603969641       11.0560814265        8.4893157281
  C        10.7334413546       10.8606476379       10.5852016947
  H        11.6493366989       11.4123167441       10.3321894442
  H        10.3056340466       11.2101388004       11.5422920136
  O        10.9553335147        9.4125084108       10.6539143523
  C        11.9619794532        9.0313696131       11.6317057312
  H        12.9090088856        9.2685366514       11.1480733288
  H        11.7328601869        9.5298992872       12.5962503622
  H        12.0005315029        7.9630776156       11.7233322387
      17
 i =      300, time =       60.000, E =       -23.2176405259
 Li         9.6201055759        8.5042302419        9.9034855500
  H         7.1310230946        9.2598765319        8.4713677404
  C         7.7692740239       10.1414181132        8.4242664176
  H         7.1301744585       11.0218790546        8.6182397701
  H         8.1449454645       10.3149321241        7.3934665498
  O         8.8143544839       10.0334833457        9.3719256092
  C         9.7471126151       11.1130883821        9.4347904024
  H         9.1837296270       12.0361752291        9.6871474840
  H        10.2629842559       11.2261407995        8.4520317237
  C        10.7653829767       10.7801296954       10.5545893607
  H        11.6969661772       11.3291676649       10.2893537057
  H        10.4229766885       11.0854591584       11.5739867649
  O        10.9798045248        9.3982979510       10.6667506946
  C        11.9318217299        9.0416739831       11.6553277468
  H        12.9718231873        9.2553794146       11.2331591240
  H        11.7183307521        9.5225448966       12.6334284375
  H        11.8546867539        7.9264128107       11.7521394230
      17
 i =      400, time =       80.000, E =       -23.2133043636
 Li         9.5720560148        8.5662514139        9.8652270976
  H         7.2427705273        9.1606244149        8.5835766004
  C         7.7452147539       10.1150326991        8.4414062405
  H         7.1324014256       10.9291415932        8.7200883626
  H         8.1282223591       10.2281691831        7.4088618438
  O         8.8391499442       10.0299858773        9.3374190752
  C         9.7610549810       11.1601309011        9.4727555766
  H         9.1583188078       12.0372096581        9.6743215836
  H        10.1690419585       11.2856623636        8.4730960867
  C        10.7849383213       10.7954943992       10.5347178485
  H        11.7862912784       11.2130662650       10.3444723085
  H        10.4277765224       11.1567863312       11.5157253734
  O        10.9613612236        9.3641549132       10.6550664385
  C        11.9433595587        9.0314010129       11.6610881972
  H        12.9929676971        9.3678576789       11.4500889010
  H        11.6033826903        9.5326945880       12.5683366840
  H        11.8565667939        7.9303139414       11.8739290474
      17
 i =      500, time =      100.000, E =       -23.2138556719
 Li         9.5978084052        8.4535721452        9.9095934479
  H         7.2628902469        9.1944825164        8.5453054084
  C         7.7197924625       10.1745704883        8.4439477170
  H         7.1558638720       10.9814784298        8.8590231996
  H         8.1464404388       10.3055661391        7.4606731918
  O         8.8902437583       10.0023182397        9.3279606132
  C         9.7602459015       11.0993530035        9.4666766861
  H         9.1957855357       12.0058194277        9.7565884793
  H        10.1949893525       11.3308697701        8.4830322527
  C        10.7753270708       10.8225759895       10.5372447164
  H        11.7525283816       11.2276451900       10.2586264167
  H        10.4664769550       11.2774160536       11.4700303441
  O        10.9491090459        9.3966228689       10.6501202020
  C        11.9028882643        9.0343445914       11.6535267926
  H        12.8369078570        9.4927772220       11.4311202990
  H        11.6843984164        9.4432633089       12.6176741146
  H        11.9169354499        7.9389512889       11.7556972325
      17
 i =      600, time =      120.000, E =       -23.2090867942
 Li         9.6595217771        8.3379977068        9.9851952568
  H         7.1018345925        9.3750226918        8.3702364716
  C         7.7575219028       10.2639693353        8.4850290537
  H         7.2630734430       11.1086778767        9.0868790795
  H         8.1757344618       10.5575355315        7.5107271829
  O         8.8918824259        9.9105632811        9.2980632228
  C         9.7062082827       11.0833405905        9.3888628339
  H         9.1337091293       12.0043790518        9.6376768259
  H        10.2770275870       11.3079119752        8.4626115246
  C        10.7896168258       10.8312612167       10.5530569330
  H        11.7233446922       11.3260765488       10.2603611963
  H        10.4720930809       11.2650031211       11.5134747206
  O        10.9337286200        9.4365276087       10.6803444214
  C        11.8865631319        9.0415895447       11.6457697472
  H        12.7984483423        9.5458904824       11.3978897833
  H        11.7277420015        9.2810127223       12.7093055596
  H        11.9519423336        7.9813752006       11.5045239815
      17
 i =      700, time =      140.000, E =       -23.2087028774
 Li         9.6837036361        8.3849980978       10.0095627742
  H         7.1224557065        9.4345051690        8.3241566372
  C         7.7556964732       10.3272449516        8.5142312516
  H         7.1098342333       11.0544894144        9.1494536493
  H         7.9854416056       10.7175883517        7.5081418420
  O         8.8787824356        9.8922224951        9.2423676050
  C         9.7578279949       11.0083257404        9.3869738311
  H         9.1978307221       11.9320087769        9.6362813441
  H        10.3947696808       11.2077527314        8.4972495521
  C        10.7430887538       10.8380764534       10.5324093952
  H        11.6587454300       11.4120654347       10.2979177524
  H        10.2767624919       11.2880756469       11.4504192505
  O        10.8928185118        9.4289816259       10.7189390839
  C        11.9674205723        9.0427765682       11.6371746639
  H        12.9471124213        9.5755563477       11.5120739542
  H        11.5415180703        9.2760001912       12.6935258995
  H        12.0788525709        7.9866235245       11.5111047787
      17
 i =      800, time =      160.000, E =       -23.2157949072
 Li         9.6083854220        8.5119711818        9.9404795221
  H         7.0742154240        9.4326535376        8.2806244205
  C         7.6566017181       10.3097976829        8.5200196821
  H         6.9751114084       10.9191222923        9.0678221443
  H         7.7895220390       10.7782182591        7.5459658123
  O         8.8856582193        9.9345948055        9.2055044769
  C         9.8329693326       11.0170420816        9.3327578288
  H         9.2738147037       11.9481726631        9.4315212722
  H        10.4730713337       11.0273262010        8.4328175080
  C        10.6867690691       10.7851425911       10.6001741392
  H        11.6725588139       11.2776194714       10.4539375742
  H        10.1984246922       11.2269224732       11.4909599475
  O        10.9404257502        9.3677688164       10.7719314467
  C        12.0178876659        9.0785558284       11.6587282036
  H        12.9744803678        9.6452587385       11.3994315746
  H        11.6097870193        9.3378713312       12.6631712650
  H        12.2813446987        8.0246393355       11.5465202152
      17
 i =      900, time =      180.000, E =       -23.2049259971
 Li         9.5367587534        8.5561281596        9.8742249817
  H         7.0625628594        9.3811118898        8.3376941526
  C         7.6249661401       10.2779225393        8.5395487645
  H         6.9951107137       10.9111608460        9.0881924442
  H         7.7461013133       10.8222787091        7.5867027183
  O         8.8674473673       10.0227529438        9.1783029076
  C         9.9036880284       10.9862295525        9.2946237567
  H         9.4754456888       11.9828825900        9.3004822228
  H        10.4979596112       10.7920865603        8.4177334647
  C        10.6146818923       10.7060405779       10.6435634007
  H        11.5589025309       11.2559734719       10.6951118492
  H         9.9847498707       10.9895575210       11.4774489608
  O        10.9851605732        9.3495947045       10.7783911666
  C        12.0482193438        9.1318583040       11.6969345466
  H        12.8824551302        9.6068794281       11.1724702957
  H        11.8553871897        9.4324124408       12.6858990498
  H        12.3677195779        8.0829208560       11.5859280703
      17
 i =     1000, time =      200.000, E =       -23.2144918320
 Li         9.5811284484        8.4863912970        9.8970214205
  H         7.0655704357        9.4026631072        8.4397192242
  C         7.6266270952       10.3593616317        8.5319878152
  H         7.0860378603       11.0968806909        9.1724803525
  H         7.8617910982       10.8815891157        7.5789924996
  O         8.8473780700        9.9915353956        9.1949934420
  C         9.9511818176       10.9246071145        9.3087707710
  H         9.5378510991       11.9447844163        9.2276938719
  H        10.6808409560       10.6882731773        8.5018524744
  C        10.5305914077       10.7312003850       10.6528774746
  H        11.3653508820       11.3975172682       10.8522181929
  H         9.7565907043       10.8248328015       11.4149825670
  O        10.9603317677        9.3323107601       10.7326168529
  C        12.1128855031        9.1716975198       11.6651264218
  H        12.9987116787        9.6121511440       11.2436410102
  H        11.7969063290        9.5703868042       12.5877528036
  H        12.3296131641        8.0776273091       11.8225649918
      17
 i =     1100, time =      220.000, E =       -23.2067825919
 Li         9.6818008413        8.3998396186        9.9432146681
  H         7.0293289393        9.6162588507        8.5138006525
  C         7.6787905208       10.4954306594        8.5260806226
  H         7.3375094775       11.3553093076        9.2068247595
  H         8.0606406968       10.8749193524        7.5761948374
  O         8.8263630866        9.8853289412        9.1951060822
  C         9.8900310998       10.8695680006        9.2783984836
  H         9.4639322677       11.8868940301        9.1096966352
  H        10.7419851182       10.6936810818        8.5754498006
  C        10.4865181585       10.7026296314       10.7122680849
  H        11.2947034323       11.4459017839       10.8177840024
  H         9.7216206435       10.8048923784       11.5329148250
  O        10.9837813744        9.3765044366       10.7517426018
  C        12.0922402632        9.2046693525       11.5764889085
  H        13.0467209384        9.6084310105       11.2645376347
  H        11.8181460036        9.6516641642       12.5961547402
  H        12.1110528993        8.1211250616       11.8058785465
      17
 i =     1200, time =      240.000, E =       -23.2053655312
 Li         9.7247754185        8.3741101553        9.9187170746
  H         6.8970331580        9.7815090273        8.5644355119
  C         7.6993702844       10.5343493207        8.5190454361
  H         7.5444390152       11.4475594054        9.1532810390
  H         8.0758801806       10.7744568732        7.5363315191
  O         8.8040059982        9.8665518289        9.1548726235
  C         9.8362556032       10.8275242339        9.3113900680
  H         9.5127485355       11.8719412434        9.2197411992
  H        10.6439552993       10.6906634409        8.5822922021
  C        10.4803361673       10.7143210019       10.7072609881
  H        11.2998694373       11.4635286510       10.7482093890
  H         9.6823812459       10.9728005858       11.4344504462
  O        10.9736485599        9.3819061806       10.7724478251
  C        12.1177286193        9.1889964003       11.6176003124
  H        12.9362319263        9.7359214199       11.0945295994
  H        12.1585658439        9.6663078474       12.6669266935
  H        12.2598299847        8.1285659177       11.7381952698
      17
 i =     1300, time =      260.000, E =       -23.2144936368
 Li         9.6891555421        8.4350090785        9.8355931996
  H         6.8020452476        9.7481980965        8.5296187222
  C         7.6210984277       10.4726015234        8.4874644954
  H         7.3531210799       11.3653531911        9.0145525013
  H         7.8588867636       10.6410747601        7.4295505539
  O         8.8011150624        9.9406422966        9.1492055825
  C         9.8912305459       10.8548123404        9.3185098804
  H         9.5870831424       11.8944001173        9.2089252362
  H        10.6072134410       10.6616066677        8.5242978729
  C        10.5156645871       10.7100588410       10.6935054895
  H        11.3833518330       11.3697139713       10.8129501374
  H         9.7362171759       11.0229337650       11.3890866841
  O        10.9422258235        9.3226870062       10.8551732587
  C        12.1824961135        9.1903998741       11.6320176172
  H        12.9490544782        9.8434680846       11.1354294505
  H        12.1884552295        9.6171317571       12.6490373056
  H        12.4203261461        8.1586359058       11.6777809684
      17
 i =     1400, time =      280.000, E =       -23.2022599317
 Li         9.6298999521        8.5580660846        9.7893750140
  H         6.8920791615        9.6022225699        8.5538352235
  C         7.6234437779       10.3954516643        8.4864327962
  H         7.1009485411       11.2119784734        8.8764189825
  H         7.6944485744       10.4816040267        7.3956789080
  O         8.8107567744       10.0137462200        9.1818616948
  C         9.9391105861       10.8895384417        9.2913463487
  H         9.5648366116       11.9027059951        9.1162224371
  H        10.6561404323       10.6461214592        8.4802272838
  C        10.5297229782       10.6491603397       10.6952341369
  H        11.4130991163       11.2863569858       10.7775732531
  H         9.9092920508       10.9018679008       11.5525982365
  O        10.9436984136        9.3110795396       10.9097131898
  C        12.1643084622        9.2082297983       11.5849536566
  H        13.0206232394        9.8344278272       11.2886066587
  H        11.9389023628        9.4995937177       12.5820444725
  H        12.3777307121        8.1508054231       11.5583989553
      17
 i =     1500, time =      300.000, E =       -23.2137104323
 Li         9.6238386959        8.5723212076        9.8617824453
  H         6.9033253606        9.5773594204        8.5102974045
  C         7.6773373911       10.3554615865        8.4892991697
  H         7.1451024230       11.2665432266        8.8554361304
  H         7.8519998146       10.5005602019        7.3930464195
  O         8.8158746421        9.9752253603        9.2397181891
  C         9.9322886948       10.9105380713        9.3144502794
  H         9.5230330340       11.9406325714        9.2185908394
  H        10.6590208352       10.6732458523        8.4956639053
  C        10.5424826036       10.7471194050       10.6642826212
  H        11.3871786281       11.4228549389       10.8316709352
  H         9.8205808961       10.9037989475       11.5001855483
  O        10.9141695057        9.3315685180       10.8025321823
  C        12.1345906118        9.1382940965       11.6218921774
  H        12.9193093239        9.7629463205       11.1657281859
  H        11.9178853672        9.4491667432       12.6189356065
  H        12.5110552195        8.1010004245       11.4955684770
      17
 i =     1600, time =      320.000, E =       -23.2106737025
 Li         9.6364257650        8.4122935554        9.9985264455
  H         6.9484632928        9.5662790803        8.4927806388
  C         7.7397766286       10.3558255415        8.4762640401
  H         7.3335347412       11.3716090978        8.8875052415
  H         8.0911616072       10.5849332374        7.4408143128
  O         8.8375294407        9.9433407266        9.2693979628
  C         9.8372871431       10.9289711640        9.3279342227
  H         9.4542142111       11.9645326152        9.3229764123
  H        10.5647060320       10.7301792900        8.5352225303
  C        10.5574602968       10.7690838309       10.6783284257
  H        11.4566464734       11.4203916050       10.7067457752
  H         9.8389738700       11.0389830122       11.5079950373
  O        10.9650064530        9.4255378412       10.7106602969
  C        12.0433781827        9.1059221102       11.6080403593
  H        12.9050802185        9.5606781008       11.1551455292
  H        11.8177587636        9.3487347243       12.6913634290
  H        12.2870201322        8.0283271009       11.3824497028
      17
 i =     1700, time =      340.000, E =       -23.2074499918
 Li         9.6119070816        8.3231460230       10.0950486147
  H         7.0739514641        9.4909742316        8.4932066347
  C         7.7367009467       10.3491503750        8.4249882817
  H         7.3700015048       11.3108833709        8.8430788997
  H         8.1726542609       10.5944284889        7.4830202327
  O         8.8469921986        9.9089037386        9.2917068721
  C         9.7779011458       11.0102181383        9.3559709926
  H         9.2344224859       11.9612007032        9.3871402820
  H        10.4694330949       10.9623772183        8.5283200761
  C        10.6254380324       10.8190741683       10.6876179762
  H        11.5523527265       11.4077716107       10.6246428194
  H         9.9814088893       11.1201805529       11.5063657905
  O        11.0018497706        9.4227102078       10.6681998054
  C        12.0041574844        9.0811859782       11.5739675323
  H        13.0089112438        9.4816294654       11.3554951716
  H        11.5529805023        9.3383421641       12.5807830044
  H        12.1168808955        7.9627382933       11.5483737867
      17
 i =     1800, time =      360.000, E =       -23.2132638781
 Li         9.5660586229        8.4561156881       10.0831902221
  H         7.2458985005        9.2961125626        8.4939914053
  C         7.7381721517       10.2545175519        8.4079142816
  H         7.2259107117       11.0883112100        8.7906994698
  H         8.1354069647       10.5145514277        7.4425576511
  O         8.8409581043        9.9723990548        9.2869041856
  C         9.7847939539       11.0583604271        9.4477377483
  H         9.2037167238       11.9599399167        9.6610212185
  H        10.3848272147       11.2192034651        8.5293396965
  C        10.6793976550       10.7978126091       10.6001395813
  H        11.5360154808       11.4591926522       10.4417159908
  H        10.1399545270       11.0257934857       11.5149348068
  O        10.9852805153        9.3930432571       10.6325194827
  C        11.9955175160        9.0448988420       11.6287786131
  H        12.9670781365        9.5350692848       11.3909200770
  H        11.6209131949        9.3308203088       12.6178054604
  H        12.1080949074        7.9886302057       11.6909244523
      17
 i =     1900, time =      380.000, E =       -23.2069958302
 Li         9.5051138478        8.6414046651        9.9875580174
  H         7.2206229372        9.1767449711        8.3096574003
  C         7.7546348470       10.1396875936        8.4050320920
  H         7.0968980207       10.9028546430        8.7813873423
  H         8.1376127205       10.4621957301        7.3905141994
  O         8.8375856189       10.0188658375        9.3040522656
  C         9.7335268767       11.1438948406        9.4568773109
  H         9.1373696726       12.0405631138        9.6765519487
  H        10.2007456239       11.3267408887        8.4542226478
  C        10.7558176348       10.7438541671       10.5886836532
  H        11.7093237553       11.2733228777       10.4058250434
  H        10.4292887764       10.9557740747       11.6316472215
  O        10.9943286629        9.3531183329       10.6484639769
  C        11.9717301736        9.0443059865       11.6661565517
  H        12.8769219011        9.5843800930       11.3419445993
  H        11.8061833756        9.3163065449       12.6638860480
  H        12.0700000701        7.9980668068       11.6680851533
      17
 i =     2000, time =      400.000, E =       -23.2050783826
 Li         9.5286497921        8.5342295129        9.9618375894
  H         7.3000933910        9.1620647997        8.1759905758
  C         7.7686876879       10.1328719471        8.3649017369
  H         6.8729552864       10.7363960098        8.6626392421
  H         8.1051531115       10.3926366208        7.3171618364
  O         8.8376265342       10.0638569774        9.3515840474
  C         9.7246120338       11.1121132007        9.5061122916
  H         9.2019241600       12.0409592372        9.8396040694
  H        10.1125442541       11.3572968560        8.5001210775
  C        10.7785935553       10.8034526106       10.5451598490
  H        11.7911321586       11.1314746589       10.2752985516
  H        10.5675397695       11.2595269528       11.5611978678
  O        10.9679876749        9.3607918907       10.6907399927
  C        11.9767653375        9.0204932440       11.6169704415
  H        12.9039198538        9.5635201258       11.4478462888
  H        11.6865851674        9.4028561401       12.6329750001
  H        12.0058901544        7.9257981145       11.6587021012
      17
 i =     2100, time =      420.000, E =       -23.2027424650
 Li         9.5939112110        8.3579828579        9.9869791647
  H         7.3327862658        9.2630164759        8.0603511703
  C         7.8507425505       10.1864497092        8.3731420816
  H         6.9206365000       10.7809111292        8.6432202885
  H         8.2749395805       10.4605997947        7.4107015378
  O         8.8077744191        9.9952789231        9.3950972149
  C         9.6904546327       11.1371607276        9.5047702675
  H         9.1596363673       12.0590983313        9.8002267714
  H        10.1652989182       11.3331679314        8.5481874448
  C        10.8153612063       10.8501481713       10.5094806763
  H        11.8234053627       11.1963944368       10.1891288261
  H        10.5879521289       11.4042377833       11.4246640363
  O        10.8897422638        9.4133125858       10.7063755647
  C        11.9737367373        8.9942550934       11.5933726806
  H        12.9421672567        9.4519976425       11.3426113986
  H        11.6902815664        9.4678911852       12.5987573183
  H        11.9443059928        7.8431124706       11.5658133318
      17
 i =     2200, time =      440.000, E =       -23.2058887499
 Li         9.6188269195        8.3849246940       10.0239424487
  H         7.3022449286        9.3082256426        8.1388565799
  C         7.9031749217       10.2191787825        8.3881814305
  H         7.1492136112       10.9541335948        8.7858668898
  H         8.4001650998       10.5482238268        7.4833955271
  O         8.8407510590        9.9245702825        9.3922334412
  C         9.6497678729       11.1195931322        9.4816505344
  H         9.0367772763       11.9702774083        9.7973719316
  H        10.1614012014       11.3608157724        8.5467937440
  C        10.8247468217       10.8177750366       10.5186304011
  H        11.7027489610       11.3110205923       10.0838977103
  H        10.6365715482       11.3211140998       11.4532074218
  O        10.8612534403        9.4541552019       10.7233920659
  C        11.9204512604        9.0206232936       11.5714029723
  H        12.8470730945        9.2805629057       11.0473380846
  H        11.8903879393        9.4656726245       12.5946213316
  H        11.8551647413        7.9198146995       11.4221709743
      17
 i =     2300, time =      460.000, E =       -23.2112708242
 Li         9.5573975870        8.4907385740       10.0548588442
  H         7.2712147919        9.2644380159        8.4136717231
  C         7.8075782379       10.2006724142        8.3496124304
  H         7.2662642645       11.0142757742        8.7613043250
  H         8.2581599029       10.4735493760        7.4067286573
  O         8.9043736212        9.9415534159        9.3099909839
  C         9.6906012534       11.0798272506        9.5200344224
  H         9.0441585454       11.8459255346        9.9607130814
  H        10.1441016571       11.4453063105        8.5430508318
  C        10.7939128181       10.8530830525       10.5579045554
  H        11.7084335332       11.3007484008       10.1118059458
  H        10.5747865986       11.3673232577       11.5094444396
  O        10.8525152841        9.4136581174       10.7429637419
  C        11.9649242848        9.0174949949       11.5564286703
  H        12.8947911663        9.1720660473       11.0158623564
  H        11.9046130740        9.5597025275       12.4632080567
  H        11.9570873307        7.9520238191       11.6622733953
      17
 i =     2400, time =      480.000, E =       -23.2056692733
 Li         9.4442470830        8.5119259752       10.0708674550
  H         7.2055290328        9.2316363617        8.5501291776
  C         7.7294619953       10.1557997024        8.3626360400
  H         7.2839922374       11.0587663469        8.6938140212
  H         8.1328160580       10.3787851714        7.3592759502
  O         8.9185160137        9.9754113645        9.1760779181
  C         9.6949028172       11.1814378737        9.5277461311
  H         9.0056746505       11.9547161237        9.8934382005
  H        10.1525592375       11.4616649818        8.5620150008
  C        10.7483639073       10.8068838907       10.5839276828
  H        11.7738005911       11.0948603993       10.3121747432
  H        10.4474797984       11.2907713078       11.5555134230
  O        10.9026903874        9.3746419953       10.7953336019
  C        12.0638016902        9.0219112859       11.5675059800
  H        13.0467805656        9.1054434073       11.0654715976
  H        11.9796488103        9.5762738164       12.4835610819
  H        11.9977007757        8.0002098877       11.8676184160
      17
 i =     2500, time =      500.000, E =       -23.2075298550
 Li         9.4257506563        8.5430149658       10.0876500125