# LAMMPS data file written by reax_tools

12902 atoms
10359 bonds
7 atom types
1 bond types

0 25.774014 xlo xhi
0 65.670044 ylo yhi
0 85 zlo zhi

Atoms # full

37 1 1 0.0 0.059 6.462 4.505 0 0 0
39 2 1 0.0 2.912 6.462 4.505 0 0 0
41 3 1 0.0 5.768 6.462 4.505 0 0 0
1 4 1 0.0 0.059 0.749 4.505 0 0 0
2 5 1 0.0 1.487 2.174 5.924 0 0 0
3 6 1 0.0 2.912 0.749 4.505 0 0 0
4 7 1 0.0 4.340 2.174 5.924 0 0 0
5 8 1 0.0 5.768 0.749 4.505 0 0 0
19 9 1 0.0 0.059 3.605 4.505 0 0 0
20 10 1 0.0 1.487 5.030 5.924 0 0 0
21 11 1 0.0 2.912 3.605 4.505 0 0 0
22 12 1 0.0 4.340 5.030 5.924 0 0 0
23 13 1 0.0 5.768 3.605 4.505 0 0 0
43 14 1 0.0 8.624 6.462 4.505 0 0 0
45 15 1 0.0 11.480 6.462 4.505 0 0 0
6 16 1 0.0 7.196 2.174 5.924 0 0 0
7 17 1 0.0 8.624 0.749 4.505 0 0 0
8 18 1 0.0 10.052 2.174 5.924 0 0 0
9 19 1 0.0 11.480 0.749 4.505 0 0 0
24 20 1 0.0 7.196 5.030 5.924 0 0 0
25 21 1 0.0 8.624 3.605 4.505 0 0 0
26 22 1 0.0 10.052 5.030 5.924 0 0 0
27 23 1 0.0 11.480 3.605 4.505 0 0 0
47 24 1 0.0 14.336 6.462 4.505 0 0 0
49 25 1 0.0 17.191 6.462 4.505 0 0 0
10 26 1 0.0 12.908 2.174 5.924 0 0 0
11 27 1 0.0 14.336 0.749 4.505 0 0 0
12 28 1 0.0 15.763 2.174 5.924 0 0 0
13 29 1 0.0 17.191 0.749 4.505 0 0 0
14 30 1 0.0 18.619 2.174 5.924 0 0 0
28 31 1 0.0 12.908 5.030 5.924 0 0 0
29 32 1 0.0 14.336 3.605 4.505 0 0 0
30 33 1 0.0 15.763 5.030 5.924 0 0 0
31 34 1 0.0 17.191 3.605 4.505 0 0 0
32 35 1 0.0 18.619 5.030 5.924 0 0 0
33 36 1 0.0 20.044 3.605 4.505 0 0 0
34 37 1 0.0 21.472 5.030 5.924 0 0 0
35 38 1 0.0 22.900 3.605 4.505 0 0 0
36 39 1 0.0 24.328 5.030 5.924 0 0 0
51 40 1 0.0 20.044 6.462 4.505 0 0 0
53 41 1 0.0 22.900 6.462 4.505 0 0 0
15 42 1 0.0 20.044 0.749 4.505 0 0 0
16 43 1 0.0 21.472 2.174 5.924 0 0 0
17 44 1 0.0 22.900 0.749 4.505 0 0 0
18 45 1 0.0 24.328 2.174 5.924 0 0 0
59 46 1 0.0 5.768 9.312 4.505 0 0 0
75 47 1 0.0 2.912 12.169 4.505 0 0 0
73 48 1 0.0 0.059 12.169 4.505 0 0 0
38 49 1 0.0 1.487 7.887 5.924 0 0 0
57 50 1 0.0 2.912 9.312 4.505 0 0 0
77 51 1 0.0 5.768 12.169 4.505 0 0 0
40 52 1 0.0 4.340 7.887 5.924 0 0 0
58 53 1 0.0 4.340 10.744 5.924 0 0 0
55 54 1 0.0 0.059 9.312 4.505 0 0 0
56 55 1 0.0 1.487 10.744 5.924 0 0 0
79 56 1 0.0 8.624 12.169 4.505 0 0 0
81 57 1 0.0 11.480 12.169 4.505 0 0 0
42 58 1 0.0 7.196 7.887 5.924 0 0 0
44 59 1 0.0 10.052 7.887 5.924 0 0 0
60 60 1 0.0 7.196 10.744 5.924 0 0 0
61 61 1 0.0 8.624 9.312 4.505 0 0 0
62 62 1 0.0 10.052 10.744 5.924 0 0 0
63 63 1 0.0 11.480 9.312 4.505 0 0 0
46 64 1 0.0 12.908 7.887 5.924 0 0 0
48 65 1 0.0 15.763 7.887 5.924 0 0 0
50 66 1 0.0 18.619 7.887 5.924 0 0 0
64 67 1 0.0 12.908 10.744 5.924 0 0 0
65 68 1 0.0 14.336 9.312 4.505 0 0 0
66 69 1 0.0 15.763 10.744 5.924 0 0 0
67 70 1 0.0 17.191 9.312 4.505 0 0 0
68 71 1 0.0 18.619 10.744 5.924 0 0 0
83 72 1 0.0 14.336 12.169 4.505 0 0 0
85 73 1 0.0 17.191 12.169 4.505 0 0 0
52 74 1 0.0 21.472 7.887 5.924 0 0 0
54 75 1 0.0 24.328 7.887 5.924 0 0 0
69 76 1 0.0 20.044 9.312 4.505 0 0 0
70 77 1 0.0 21.472 10.744 5.924 0 0 0
71 78 1 0.0 22.900 9.312 4.505 0 0 0
72 79 1 0.0 24.328 10.744 5.924 0 0 0
87 80 1 0.0 20.044 12.169 4.505 0 0 0
89 81 1 0.0 22.900 12.169 4.505 0 0 0
76 82 1 0.0 4.340 13.600 5.924 0 0 0
74 83 1 0.0 1.487 13.600 5.924 0 0 0
91 84 1 0.0 0.059 15.025 4.505 0 0 0
92 85 1 0.0 1.487 16.450 5.924 0 0 0
93 86 1 0.0 2.912 15.025 4.505 0 0 0
94 87 1 0.0 4.340 16.450 5.924 0 0 0
95 88 1 0.0 5.768 15.025 4.505 0 0 0
109 89 1 0.0 0.059 17.882 4.505 0 0 0
110 90 1 0.0 1.487 19.307 5.924 0 0 0
111 91 1 0.0 2.912 17.882 4.505 0 0 0
112 92 1 0.0 4.340 19.307 5.924 0 0 0
113 93 1 0.0 5.768 17.882 4.505 0 0 0
80 94 1 0.0 10.052 13.600 5.924 0 0 0
78 95 1 0.0 7.196 13.600 5.924 0 0 0
96 96 1 0.0 7.196 16.450 5.924 0 0 0
97 97 1 0.0 8.624 15.025 4.505 0 0 0
98 98 1 0.0 10.052 16.450 5.924 0 0 0
99 99 1 0.0 11.480 15.025 4.505 0 0 0
114 100 1 0.0 7.196 19.307 5.924 0 0 0
115 101 1 0.0 8.624 17.882 4.505 0 0 0
116 102 1 0.0 10.052 19.307 5.924 0 0 0
117 103 1 0.0 11.480 17.882 4.505 0 0 0
82 104 1 0.0 12.908 13.600 5.924 0 0 0
84 105 1 0.0 15.763 13.600 5.924 0 0 0
86 106 1 0.0 18.619 13.600 5.924 0 0 0
100 107 1 0.0 12.908 16.450 5.924 0 0 0
101 108 1 0.0 14.336 15.025 4.505 0 0 0
102 109 1 0.0 15.763 16.450 5.924 0 0 0
103 110 1 0.0 17.191 15.025 4.505 0 0 0
104 111 1 0.0 18.619 16.450 5.924 0 0 0
118 112 1 0.0 12.908 19.307 5.924 0 0 0
119 113 1 0.0 14.336 17.882 4.505 0 0 0
120 114 1 0.0 15.763 19.307 5.924 0 0 0
121 115 1 0.0 17.191 17.882 4.505 0 0 0
122 116 1 0.0 18.619 19.307 5.924 0 0 0
88 117 1 0.0 21.472 13.600 5.924 0 0 0
90 118 1 0.0 24.328 13.600 5.924 0 0 0
105 119 1 0.0 20.044 15.025 4.505 0 0 0
106 120 1 0.0 21.472 16.450 5.924 0 0 0
107 121 1 0.0 22.900 15.025 4.505 0 0 0
108 122 1 0.0 24.328 16.450 5.924 0 0 0
123 123 1 0.0 20.044 17.882 4.505 0 0 0
124 124 1 0.0 21.472 19.307 5.924 0 0 0
125 125 1 0.0 22.900 17.882 4.505 0 0 0
126 126 1 0.0 24.328 19.307 5.924 0 0 0
129 127 1 0.0 2.912 20.739 4.505 0 0 0
130 128 1 0.0 4.340 22.164 5.924 0 0 0
131 129 1 0.0 5.768 20.739 4.505 0 0 0
145 130 1 0.0 0.059 23.589 4.505 0 0 0
146 131 1 0.0 1.487 25.020 5.924 0 0 0
147 132 1 0.0 2.912 23.589 4.505 0 0 0
148 133 1 0.0 4.340 25.020 5.924 0 0 0
149 134 1 0.0 5.768 23.589 4.505 0 0 0
127 135 1 0.0 0.059 20.739 4.505 0 0 0
128 136 1 0.0 1.487 22.164 5.924 0 0 0
132 137 1 0.0 7.196 22.164 5.924 0 0 0
133 138 1 0.0 8.624 20.739 4.505 0 0 0
134 139 1 0.0 10.052 22.164 5.924 0 0 0
135 140 1 0.0 11.480 20.739 4.505 0 0 0
150 141 1 0.0 7.196 25.020 5.924 0 0 0
151 142 1 0.0 8.624 23.589 4.505 0 0 0
152 143 1 0.0 10.052 25.020 5.924 0 0 0
153 144 1 0.0 11.480 23.589 4.505 0 0 0
139 145 1 0.0 17.191 20.739 4.505 0 0 0
156 146 1 0.0 15.763 25.020 5.924 0 0 0
158 147 1 0.0 18.619 25.020 5.924 0 0 0
138 148 1 0.0 15.763 22.164 5.924 0 0 0
155 149 1 0.0 14.336 23.589 4.505 0 0 0
154 150 1 0.0 12.908 25.020 5.924 0 0 0
157 151 1 0.0 17.191 23.589 4.505 0 0 0
137 152 1 0.0 14.336 20.739 4.505 0 0 0
140 153 1 0.0 18.619 22.164 5.924 0 0 0
136 154 1 0.0 12.908 22.164 5.924 0 0 0
141 155 1 0.0 20.044 20.739 4.505 0 0 0
142 156 1 0.0 21.472 22.164 5.924 0 0 0
143 157 1 0.0 22.900 20.739 4.505 0 0 0
144 158 1 0.0 24.328 22.164 5.924 0 0 0
159 159 1 0.0 20.044 23.589 4.505 0 0 0
160 160 1 0.0 21.472 25.020 5.924 0 0 0
161 161 1 0.0 22.900 23.589 4.505 0 0 0
162 162 1 0.0 24.328 25.020 5.924 0 0 0
163 163 1 0.0 0.059 26.445 4.505 0 0 0
165 164 1 0.0 2.912 26.445 4.505 0 0 0
167 165 1 0.0 5.768 26.445 4.505 0 0 0
164 166 1 0.0 1.487 27.877 5.924 0 0 0
166 167 1 0.0 4.340 27.877 5.924 0 0 0
181 168 1 0.0 0.059 29.302 4.505 0 0 0
182 169 1 0.0 1.487 30.727 5.924 0 0 0
183 170 1 0.0 2.912 29.302 4.505 0 0 0
184 171 1 0.0 4.340 30.727 5.924 0 0 0
185 172 1 0.0 5.768 29.302 4.505 0 0 0
199 173 1 0.0 0.059 32.159 4.505 0 0 0
201 174 1 0.0 2.912 32.159 4.505 0 0 0
203 175 1 0.0 5.768 32.159 4.505 0 0 0
169 176 1 0.0 8.624 26.445 4.505 0 0 0
171 177 1 0.0 11.480 26.445 4.505 0 0 0
168 178 1 0.0 7.196 27.877 5.924 0 0 0
170 179 1 0.0 10.052 27.877 5.924 0 0 0
186 180 1 0.0 7.196 30.727 5.924 0 0 0
187 181 1 0.0 8.624 29.302 4.505 0 0 0
188 182 1 0.0 10.052 30.727 5.924 0 0 0
189 183 1 0.0 11.480 29.302 4.505 0 0 0
205 184 1 0.0 8.624 32.159 4.505 0 0 0
207 185 1 0.0 11.480 32.159 4.505 0 0 0
175 186 1 0.0 17.191 26.445 4.505 0 0 0
173 187 1 0.0 14.336 26.445 4.505 0 0 0
172 188 1 0.0 12.908 27.877 5.924 0 0 0
174 189 1 0.0 15.763 27.877 5.924 0 0 0
176 190 1 0.0 18.619 27.877 5.924 0 0 0
190 191 1 0.0 12.908 30.727 5.924 0 0 0
191 192 1 0.0 14.336 29.302 4.505 0 0 0
192 193 1 0.0 15.763 30.727 5.924 0 0 0
193 194 1 0.0 17.191 29.302 4.505 0 0 0
194 195 1 0.0 18.619 30.727 5.924 0 0 0
209 196 1 0.0 14.336 32.159 4.505 0 0 0
211 197 1 0.0 17.191 32.159 4.505 0 0 0
177 198 1 0.0 20.044 26.445 4.505 0 0 0
179 199 1 0.0 22.900 26.445 4.505 0 0 0
198 200 1 0.0 24.328 30.727 5.924 0 0 0
213 201 1 0.0 20.044 32.159 4.505 0 0 0
215 202 1 0.0 22.900 32.159 4.505 0 0 0
178 203 1 0.0 21.472 27.877 5.924 0 0 0
180 204 1 0.0 24.328 27.877 5.924 0 0 0
195 205 1 0.0 20.044 29.302 4.505 0 0 0
196 206 1 0.0 21.472 30.727 5.924 0 0 0
197 207 1 0.0 22.900 29.302 4.505 0 0 0
200 208 1 0.0 1.487 33.584 5.924 0 0 0
202 209 1 0.0 4.340 33.584 5.924 0 0 0
217 210 1 0.0 0.059 35.015 4.505 0 0 0
218 211 1 0.0 1.487 36.440 5.924 0 0 0
219 212 1 0.0 2.912 35.015 4.505 0 0 0
220 213 1 0.0 4.340 36.440 5.924 0 0 0
221 214 1 0.0 5.768 35.015 4.505 0 0 0
235 215 1 0.0 0.059 37.865 4.505 0 0 0
236 216 1 0.0 1.487 39.297 5.924 0 0 0
237 217 1 0.0 2.912 37.865 4.505 0 0 0
238 218 1 0.0 4.340 39.297 5.924 0 0 0
239 219 1 0.0 5.768 37.865 4.505 0 0 0
204 220 1 0.0 7.196 33.584 5.924 0 0 0
206 221 1 0.0 10.052 33.584 5.924 0 0 0
222 222 1 0.0 7.196 36.440 5.924 0 0 0
223 223 1 0.0 8.624 35.015 4.505 0 0 0
224 224 1 0.0 10.052 36.440 5.924 0 0 0
225 225 1 0.0 11.480 35.015 4.505 0 0 0
240 226 1 0.0 7.196 39.297 5.924 0 0 0
241 227 1 0.0 8.624 37.865 4.505 0 0 0
242 228 1 0.0 10.052 39.297 5.924 0 0 0
243 229 1 0.0 11.480 37.865 4.505 0 0 0
208 230 1 0.0 12.908 33.584 5.924 0 0 0
210 231 1 0.0 15.763 33.584 5.924 0 0 0
212 232 1 0.0 18.619 33.584 5.924 0 0 0
226 233 1 0.0 12.908 36.440 5.924 0 0 0
227 234 1 0.0 14.336 35.015 4.505 0 0 0
228 235 1 0.0 15.763 36.440 5.924 0 0 0
229 236 1 0.0 17.191 35.015 4.505 0 0 0
230 237 1 0.0 18.619 36.440 5.924 0 0 0
244 238 1 0.0 12.908 39.297 5.924 0 0 0
245 239 1 0.0 14.336 37.865 4.505 0 0 0
246 240 1 0.0 15.763 39.297 5.924 0 0 0
247 241 1 0.0 17.191 37.865 4.505 0 0 0
248 242 1 0.0 18.619 39.297 5.924 0 0 0
251 243 1 0.0 22.900 37.865 4.505 0 0 0
252 244 1 0.0 24.328 39.297 5.924 0 0 0
214 245 1 0.0 21.472 33.584 5.924 0 0 0
216 246 1 0.0 24.328 33.584 5.924 0 0 0
231 247 1 0.0 20.044 35.015 4.505 0 0 0
232 248 1 0.0 21.472 36.440 5.924 0 0 0
233 249 1 0.0 22.900 35.015 4.505 0 0 0
234 250 1 0.0 24.328 36.440 5.924 0 0 0
249 251 1 0.0 20.044 37.865 4.505 0 0 0
250 252 1 0.0 21.472 39.297 5.924 0 0 0
254 253 1 0.0 1.487 42.154 5.924 0 0 0
253 254 1 0.0 0.059 40.722 4.505 0 0 0
256 255 1 0.0 4.340 42.154 5.924 0 0 0
274 256 1 0.0 4.340 45.004 5.924 0 0 0
257 257 1 0.0 5.768 40.722 4.505 0 0 0
271 258 1 0.0 0.059 43.579 4.505 0 0 0
255 259 1 0.0 2.912 40.722 4.505 0 0 0
272 260 1 0.0 1.487 45.004 5.924 0 0 0
273 261 1 0.0 2.912 43.579 4.505 0 0 0
275 262 1 0.0 5.768 43.579 4.505 0 0 0
258 263 1 0.0 7.196 42.154 5.924 0 0 0
259 264 1 0.0 8.624 40.722 4.505 0 0 0
260 265 1 0.0 10.052 42.154 5.924 0 0 0
261 266 1 0.0 11.480 40.722 4.505 0 0 0
276 267 1 0.0 7.196 45.004 5.924 0 0 0
277 268 1 0.0 8.624 43.579 4.505 0 0 0
278 269 1 0.0 10.052 45.004 5.924 0 0 0
279 270 1 0.0 11.480 43.579 4.505 0 0 0
262 271 1 0.0 12.908 42.154 5.924 0 0 0
263 272 1 0.0 14.336 40.722 4.505 0 0 0
264 273 1 0.0 15.763 42.154 5.924 0 0 0
265 274 1 0.0 17.191 40.722 4.505 0 0 0
266 275 1 0.0 18.619 42.154 5.924 0 0 0
280 276 1 0.0 12.908 45.004 5.924 0 0 0
281 277 1 0.0 14.336 43.579 4.505 0 0 0
282 278 1 0.0 15.763 45.004 5.924 0 0 0
283 279 1 0.0 17.191 43.579 4.505 0 0 0
284 280 1 0.0 18.619 45.004 5.924 0 0 0
267 281 1 0.0 20.044 40.722 4.505 0 0 0
268 282 1 0.0 21.472 42.154 5.924 0 0 0
269 283 1 0.0 22.900 40.722 4.505 0 0 0
270 284 1 0.0 24.328 42.154 5.924 0 0 0
285 285 1 0.0 20.044 43.579 4.505 0 0 0
286 286 1 0.0 21.472 45.004 5.924 0 0 0
287 287 1 0.0 22.900 43.579 4.505 0 0 0
288 288 1 0.0 24.328 45.004 5.924 0 0 0
289 289 1 0.0 0.059 46.435 4.505 0 0 0
293 290 1 0.0 5.768 46.435 4.505 0 0 0
291 291 1 0.0 2.912 46.435 4.505 0 0 0
290 292 1 0.0 1.487 47.860 5.924 0 0 0
292 293 1 0.0 4.340 47.860 5.924 0 0 0
307 294 1 0.0 0.059 49.292 4.505 0 0 0
308 295 1 0.0 1.487 50.717 5.924 0 0 0
309 296 1 0.0 2.912 49.292 4.505 0 0 0
310 297 1 0.0 4.340 50.717 5.924 0 0 0
311 298 1 0.0 5.768 49.292 4.505 0 0 0
325 299 1 0.0 0.059 52.142 4.505 0 0 0
327 300 1 0.0 2.912 52.142 4.505 0 0 0
329 301 1 0.0 5.768 52.142 4.505 0 0 0
295 302 1 0.0 8.624 46.435 4.505 0 0 0
297 303 1 0.0 11.480 46.435 4.505 0 0 0
294 304 1 0.0 7.196 47.860 5.924 0 0 0
296 305 1 0.0 10.052 47.860 5.924 0 0 0
312 306 1 0.0 7.196 50.717 5.924 0 0 0
313 307 1 0.0 8.624 49.292 4.505 0 0 0
314 308 1 0.0 10.052 50.717 5.924 0 0 0
315 309 1 0.0 11.480 49.292 4.505 0 0 0
331 310 1 0.0 8.624 52.142 4.505 0 0 0
333 311 1 0.0 11.480 52.142 4.505 0 0 0
299 312 1 0.0 14.336 46.435 4.505 0 0 0
301 313 1 0.0 17.191 46.435 4.505 0 0 0
335 314 1 0.0 14.336 52.142 4.505 0 0 0
337 315 1 0.0 17.191 52.142 4.505 0 0 0
298 316 1 0.0 12.908 47.860 5.924 0 0 0
300 317 1 0.0 15.763 47.860 5.924 0 0 0
302 318 1 0.0 18.619 47.860 5.924 0 0 0
316 319 1 0.0 12.908 50.717 5.924 0 0 0
317 320 1 0.0 14.336 49.292 4.505 0 0 0
318 321 1 0.0 15.763 50.717 5.924 0 0 0
319 322 1 0.0 17.191 49.292 4.505 0 0 0
320 323 1 0.0 18.619 50.717 5.924 0 0 0
303 324 1 0.0 20.044 46.435 4.505 0 0 0
305 325 1 0.0 22.900 46.435 4.505 0 0 0
304 326 1 0.0 21.472 47.860 5.924 0 0 0
306 327 1 0.0 24.328 47.860 5.924 0 0 0
321 328 1 0.0 20.044 49.292 4.505 0 0 0
322 329 1 0.0 21.472 50.717 5.924 0 0 0
323 330 1 0.0 22.900 49.292 4.505 0 0 0
324 331 1 0.0 24.328 50.717 5.924 0 0 0
339 332 1 0.0 20.044 52.142 4.505 0 0 0
341 333 1 0.0 22.900 52.142 4.505 0 0 0
326 334 1 0.0 1.487 53.574 5.924 0 0 0
328 335 1 0.0 4.340 53.574 5.924 0 0 0
343 336 1 0.0 0.059 54.999 4.505 0 0 0
344 337 1 0.0 1.487 56.430 5.924 0 0 0
345 338 1 0.0 2.912 54.999 4.505 0 0 0
346 339 1 0.0 4.340 56.430 5.924 0 0 0
347 340 1 0.0 5.768 54.999 4.505 0 0 0
361 341 1 0.0 0.059 57.855 4.505 0 0 0
363 342 1 0.0 2.912 57.855 4.505 0 0 0
365 343 1 0.0 5.768 57.855 4.505 0 0 0
330 344 1 0.0 7.196 53.574 5.924 0 0 0
332 345 1 0.0 10.052 53.574 5.924 0 0 0
348 346 1 0.0 7.196 56.430 5.924 0 0 0
349 347 1 0.0 8.624 54.999 4.505 0 0 0
350 348 1 0.0 10.052 56.430 5.924 0 0 0
351 349 1 0.0 11.480 54.999 4.505 0 0 0
367 350 1 0.0 8.624 57.855 4.505 0 0 0
369 351 1 0.0 11.480 57.855 4.505 0 0 0
355 352 1 0.0 17.191 54.999 4.505 0 0 0
356 353 1 0.0 18.619 56.430 5.924 0 0 0
334 354 1 0.0 12.908 53.574 5.924 0 0 0
336 355 1 0.0 15.763 53.574 5.924 0 0 0
371 356 1 0.0 14.336 57.855 4.505 0 0 0
373 357 1 0.0 17.191 57.855 4.505 0 0 0
338 358 1 0.0 18.619 53.574 5.924 0 0 0
353 359 1 0.0 14.336 54.999 4.505 0 0 0
352 360 1 0.0 12.908 56.430 5.924 0 0 0
354 361 1 0.0 15.763 56.430 5.924 0 0 0
357 362 1 0.0 20.044 54.999 4.505 0 0 0
358 363 1 0.0 21.472 56.430 5.924 0 0 0
359 364 1 0.0 22.900 54.999 4.505 0 0 0
360 365 1 0.0 24.328 56.430 5.924 0 0 0
375 366 1 0.0 20.044 57.855 4.505 0 0 0
377 367 1 0.0 22.900 57.855 4.505 0 0 0
340 368 1 0.0 21.472 53.574 5.924 0 0 0
342 369 1 0.0 24.328 53.574 5.924 0 0 0
362 370 1 0.0 1.487 59.280 5.924 0 0 0
364 371 1 0.0 4.340 59.280 5.924 0 0 0
397 372 1 0.0 0.059 63.569 4.505 0 0 0
398 373 1 0.0 1.487 64.994 5.924 0 0 0
399 374 1 0.0 2.912 63.569 4.505 0 0 0
400 375 1 0.0 4.340 64.994 5.924 0 0 0
401 376 1 0.0 5.768 63.569 4.505 0 0 0
379 377 1 0.0 0.059 60.712 4.505 0 0 0
380 378 1 0.0 1.487 62.137 5.924 0 0 0
381 379 1 0.0 2.912 60.712 4.505 0 0 0
382 380 1 0.0 4.340 62.137 5.924 0 0 0
383 381 1 0.0 5.768 60.712 4.505 0 0 0
366 382 1 0.0 7.196 59.280 5.924 0 0 0
368 383 1 0.0 10.052 59.280 5.924 0 0 0
385 384 1 0.0 8.624 60.712 4.505 0 0 0
386 385 1 0.0 10.052 62.137 5.924 0 0 0
387 386 1 0.0 11.480 60.712 4.505 0 0 0
402 387 1 0.0 7.196 64.994 5.924 0 0 0
403 388 1 0.0 8.624 63.569 4.505 0 0 0
404 389 1 0.0 10.052 64.994 5.924 0 0 0
405 390 1 0.0 11.480 63.569 4.505 0 0 0
384 391 1 0.0 7.196 62.137 5.924 0 0 0
370 392 1 0.0 12.908 59.280 5.924 0 0 0
372 393 1 0.0 15.763 59.280 5.924 0 0 0
374 394 1 0.0 18.619 59.280 5.924 0 0 0
388 395 1 0.0 12.908 62.137 5.924 0 0 0
389 396 1 0.0 14.336 60.712 4.505 0 0 0
390 397 1 0.0 15.763 62.137 5.924 0 0 0
391 398 1 0.0 17.191 60.712 4.505 0 0 0
392 399 1 0.0 18.619 62.137 5.924 0 0 0
406 400 1 0.0 12.908 64.994 5.924 0 0 0
407 401 1 0.0 14.336 63.569 4.505 0 0 0
408 402 1 0.0 15.763 64.994 5.924 0 0 0
409 403 1 0.0 17.191 63.569 4.505 0 0 0
410 404 1 0.0 18.619 64.994 5.924 0 0 0
376 405 1 0.0 21.472 59.280 5.924 0 0 0
378 406 1 0.0 24.328 59.280 5.924 0 0 0
393 407 1 0.0 20.044 60.712 4.505 0 0 0
394 408 1 0.0 21.472 62.137 5.924 0 0 0
395 409 1 0.0 22.900 60.712 4.505 0 0 0
396 410 1 0.0 24.328 62.137 5.924 0 0 0
411 411 1 0.0 20.044 63.569 4.505 0 0 0
412 412 1 0.0 21.472 64.994 5.924 0 0 0
413 413 1 0.0 22.900 63.569 4.505 0 0 0
414 414 1 0.0 24.328 64.994 5.924 0 0 0
851 415 1 0.0 5.768 3.605 10.200 0 0 0
865 416 1 0.0 0.059 6.462 10.200 0 0 0
867 417 1 0.0 2.912 6.462 10.200 0 0 0
869 418 1 0.0 5.768 6.462 10.200 0 0 0
451 419 1 0.0 0.059 6.462 7.353 0 0 0
453 420 1 0.0 2.912 6.462 7.353 0 0 0
455 421 1 0.0 5.768 6.462 7.353 0 0 0
415 422 1 0.0 0.059 0.749 7.353 0 0 0
416 423 1 0.0 1.487 2.174 8.780 0 0 0
417 424 1 0.0 2.912 0.749 7.353 0 0 0
418 425 1 0.0 4.340 2.174 8.780 0 0 0
829 426 1 0.0 0.059 0.749 10.200 0 0 0
419 427 1 0.0 5.768 0.749 7.353 0 0 0
831 428 1 0.0 2.912 0.749 10.200 0 0 0
433 429 1 0.0 0.059 3.605 7.353 0 0 0
434 430 1 0.0 1.487 5.030 8.780 0 0 0
435 431 1 0.0 2.912 3.605 7.353 0 0 0
436 432 1 0.0 4.340 5.030 8.780 0 0 0
437 433 1 0.0 5.768 3.605 7.353 0 0 0
833 434 1 0.0 5.768 0.749 10.200 0 0 0
847 435 1 0.0 0.059 3.605 10.200 0 0 0
849 436 1 0.0 2.912 3.605 10.200 0 0 0
830 437 1 0.0 1.487 2.174 11.637 0 0 0
832 438 1 0.0 4.340 2.174 11.637 0 0 0
848 439 1 0.0 1.487 5.030 11.637 0 0 0
850 440 1 0.0 4.340 5.030 11.637 0 0 0
420 441 1 0.0 7.196 2.174 8.780 0 0 0
421 442 1 0.0 8.624 0.749 7.353 0 0 0
422 443 1 0.0 10.052 2.174 8.780 0 0 0
423 444 1 0.0 11.480 0.749 7.353 0 0 0
438 445 1 0.0 7.196 5.030 8.780 0 0 0
439 446 1 0.0 8.624 3.605 7.353 0 0 0
440 447 1 0.0 10.052 5.030 8.780 0 0 0
441 448 1 0.0 11.480 3.605 7.353 0 0 0
835 449 1 0.0 8.624 0.749 10.200 0 0 0
837 450 1 0.0 11.480 0.749 10.200 0 0 0
853 451 1 0.0 8.624 3.605 10.200 0 0 0
855 452 1 0.0 11.480 3.605 10.200 0 0 0
871 453 1 0.0 8.624 6.462 10.200 0 0 0
873 454 1 0.0 11.480 6.462 10.200 0 0 0
457 455 1 0.0 8.624 6.462 7.353 0 0 0
459 456 1 0.0 11.480 6.462 7.353 0 0 0
834 457 1 0.0 7.196 2.174 11.637 0 0 0
836 458 1 0.0 10.052 2.174 11.637 0 0 0
852 459 1 0.0 7.196 5.030 11.637 0 0 0
854 460 1 0.0 10.052 5.030 11.637 0 0 0
424 461 1 0.0 12.908 2.174 8.780 0 0 0
425 462 1 0.0 14.336 0.749 7.353 0 0 0
426 463 1 0.0 15.763 2.174 8.780 0 0 0
427 464 1 0.0 17.191 0.749 7.353 0 0 0
428 465 1 0.0 18.619 2.174 8.780 0 0 0
442 466 1 0.0 12.908 5.030 8.780 0 0 0
443 467 1 0.0 14.336 3.605 7.353 0 0 0
444 468 1 0.0 15.763 5.030 8.780 0 0 0
445 469 1 0.0 17.191 3.605 7.353 0 0 0
446 470 1 0.0 18.619 5.030 8.780 0 0 0
839 471 1 0.0 14.336 0.749 10.200 0 0 0
841 472 1 0.0 17.191 0.749 10.200 0 0 0
857 473 1 0.0 14.336 3.605 10.200 0 0 0
859 474 1 0.0 17.191 3.605 10.200 0 0 0
875 475 1 0.0 14.336 6.462 10.200 0 0 0
877 476 1 0.0 17.191 6.462 10.200 0 0 0
461 477 1 0.0 14.336 6.462 7.353 0 0 0
463 478 1 0.0 17.191 6.462 7.353 0 0 0
838 479 1 0.0 12.908 2.174 11.637 0 0 0
840 480 1 0.0 15.763 2.174 11.637 0 0 0
842 481 1 0.0 18.619 2.174 11.637 0 0 0
856 482 1 0.0 12.908 5.030 11.637 0 0 0
858 483 1 0.0 15.763 5.030 11.637 0 0 0
860 484 1 0.0 18.619 5.030 11.637 0 0 0
429 485 1 0.0 20.044 0.749 7.353 0 0 0
430 486 1 0.0 21.472 2.174 8.780 0 0 0
431 487 1 0.0 22.900 0.749 7.353 0 0 0
432 488 1 0.0 24.328 2.174 8.780 0 0 0
447 489 1 0.0 20.044 3.605 7.353 0 0 0
448 490 1 0.0 21.472 5.030 8.780 0 0 0
843 491 1 0.0 20.044 0.749 10.200 0 0 0
845 492 1 0.0 22.900 0.749 10.200 0 0 0
861 493 1 0.0 20.044 3.605 10.200 0 0 0
863 494 1 0.0 22.900 3.605 10.200 0 0 0
879 495 1 0.0 20.044 6.462 10.200 0 0 0
881 496 1 0.0 22.900 6.462 10.200 0 0 0
449 497 1 0.0 22.900 3.605 7.353 0 0 0
450 498 1 0.0 24.328 5.030 8.780 0 0 0
465 499 1 0.0 20.044 6.462 7.353 0 0 0
467 500 1 0.0 22.900 6.462 7.353 0 0 0
844 501 1 0.0 21.472 2.174 11.637 0 0 0
846 502 1 0.0 24.328 2.174 11.637 0 0 0
862 503 1 0.0 21.472 5.030 11.637 0 0 0
864 504 1 0.0 24.328 5.030 11.637 0 0 0
470 505 1 0.0 1.487 10.744 8.780 0 0 0
887 506 1 0.0 5.768 9.312 10.200 0 0 0
905 507 1 0.0 5.768 12.169 10.200 0 0 0
454 508 1 0.0 4.340 7.887 8.780 0 0 0
901 509 1 0.0 0.059 12.169 10.200 0 0 0
472 510 1 0.0 4.340 10.744 8.780 0 0 0
452 511 1 0.0 1.487 7.887 8.780 0 0 0
473 512 1 0.0 5.768 9.312 7.353 0 0 0
885 513 1 0.0 2.912 9.312 10.200 0 0 0
469 514 1 0.0 0.059 9.312 7.353 0 0 0
903 515 1 0.0 2.912 12.169 10.200 0 0 0
489 516 1 0.0 2.912 12.169 7.353 0 0 0
491 517 1 0.0 5.768 12.169 7.353 0 0 0
487 518 1 0.0 0.059 12.169 7.353 0 0 0
883 519 1 0.0 0.059 9.312 10.200 0 0 0
471 520 1 0.0 2.912 9.312 7.353 0 0 0
866 521 1 0.0 1.487 7.887 11.637 0 0 0
868 522 1 0.0 4.340 7.887 11.637 0 0 0
884 523 1 0.0 1.487 10.744 11.637 0 0 0
886 524 1 0.0 4.340 10.744 11.637 0 0 0
889 525 1 0.0 8.624 9.312 10.200 0 0 0
891 526 1 0.0 11.480 9.312 10.200 0 0 0
456 527 1 0.0 7.196 7.887 8.780 0 0 0
907 528 1 0.0 8.624 12.169 10.200 0 0 0
458 529 1 0.0 10.052 7.887 8.780 0 0 0
474 530 1 0.0 7.196 10.744 8.780 0 0 0
909 531 1 0.0 11.480 12.169 10.200 0 0 0
475 532 1 0.0 8.624 9.312 7.353 0 0 0
476 533 1 0.0 10.052 10.744 8.780 0 0 0
477 534 1 0.0 11.480 9.312 7.353 0 0 0
493 535 1 0.0 8.624 12.169 7.353 0 0 0
495 536 1 0.0 11.480 12.169 7.353 0 0 0
890 537 1 0.0 10.052 10.744 11.637 0 0 0
870 538 1 0.0 7.196 7.887 11.637 0 0 0
872 539 1 0.0 10.052 7.887 11.637 0 0 0
888 540 1 0.0 7.196 10.744 11.637 0 0 0
893 541 1 0.0 14.336 9.312 10.200 0 0 0
895 542 1 0.0 17.191 9.312 10.200 0 0 0
460 543 1 0.0 12.908 7.887 8.780 0 0 0
911 544 1 0.0 14.336 12.169 10.200 0 0 0
462 545 1 0.0 15.763 7.887 8.780 0 0 0
464 546 1 0.0 18.619 7.887 8.780 0 0 0
913 547 1 0.0 17.191 12.169 10.200 0 0 0
478 548 1 0.0 12.908 10.744 8.780 0 0 0
479 549 1 0.0 14.336 9.312 7.353 0 0 0
480 550 1 0.0 15.763 10.744 8.780 0 0 0
481 551 1 0.0 17.191 9.312 7.353 0 0 0
482 552 1 0.0 18.619 10.744 8.780 0 0 0
497 553 1 0.0 14.336 12.169 7.353 0 0 0
499 554 1 0.0 17.191 12.169 7.353 0 0 0
874 555 1 0.0 12.908 7.887 11.637 0 0 0
876 556 1 0.0 15.763 7.887 11.637 0 0 0
878 557 1 0.0 18.619 7.887 11.637 0 0 0
892 558 1 0.0 12.908 10.744 11.637 0 0 0
894 559 1 0.0 15.763 10.744 11.637 0 0 0
896 560 1 0.0 18.619 10.744 11.637 0 0 0
466 561 1 0.0 21.472 7.887 8.780 0 0 0
897 562 1 0.0 20.044 9.312 10.200 0 0 0
468 563 1 0.0 24.328 7.887 8.780 0 0 0
899 564 1 0.0 22.900 9.312 10.200 0 0 0
915 565 1 0.0 20.044 12.169 10.200 0 0 0
917 566 1 0.0 22.900 12.169 10.200 0 0 0
483 567 1 0.0 20.044 9.312 7.353 0 0 0
484 568 1 0.0 21.472 10.744 8.780 0 0 0
485 569 1 0.0 22.900 9.312 7.353 0 0 0
486 570 1 0.0 24.328 10.744 8.780 0 0 0
501 571 1 0.0 20.044 12.169 7.353 0 0 0
503 572 1 0.0 22.900 12.169 7.353 0 0 0
880 573 1 0.0 21.472 7.887 11.637 0 0 0
882 574 1 0.0 24.328 7.887 11.637 0 0 0
898 575 1 0.0 21.472 10.744 11.637 0 0 0
900 576 1 0.0 24.328 10.744 11.637 0 0 0
488 577 1 0.0 1.487 13.600 8.780 0 0 0
490 578 1 0.0 4.340 13.600 8.780 0 0 0
902 579 1 0.0 1.487 13.600 11.637 0 0 0
904 580 1 0.0 4.340 13.600 11.637 0 0 0
937 581 1 0.0 0.059 17.882 10.200 0 0 0
939 582 1 0.0 2.912 17.882 10.200 0 0 0
941 583 1 0.0 5.768 17.882 10.200 0 0 0
523 584 1 0.0 0.059 17.882 7.353 0 0 0
524 585 1 0.0 1.487 19.307 8.780 0 0 0
525 586 1 0.0 2.912 17.882 7.353 0 0 0
526 587 1 0.0 4.340 19.307 8.780 0 0 0
527 588 1 0.0 5.768 17.882 7.353 0 0 0
919 589 1 0.0 0.059 15.025 10.200 0 0 0
921 590 1 0.0 2.912 15.025 10.200 0 0 0
923 591 1 0.0 5.768 15.025 10.200 0 0 0
505 592 1 0.0 0.059 15.025 7.353 0 0 0
506 593 1 0.0 1.487 16.450 8.780 0 0 0
507 594 1 0.0 2.912 15.025 7.353 0 0 0
508 595 1 0.0 4.340 16.450 8.780 0 0 0
509 596 1 0.0 5.768 15.025 7.353 0 0 0
938 597 1 0.0 1.487 19.307 11.637 0 0 0
940 598 1 0.0 4.340 19.307 11.637 0 0 0
920 599 1 0.0 1.487 16.450 11.637 0 0 0
922 600 1 0.0 4.340 16.450 11.637 0 0 0
492 601 1 0.0 7.196 13.600 8.780 0 0 0
494 602 1 0.0 10.052 13.600 8.780 0 0 0
908 603 1 0.0 10.052 13.600 11.637 0 0 0
906 604 1 0.0 7.196 13.600 11.637 0 0 0
530 605 1 0.0 10.052 19.307 8.780 0 0 0
531 606 1 0.0 11.480 17.882 7.353 0 0 0
925 607 1 0.0 8.624 15.025 10.200 0 0 0
943 608 1 0.0 8.624 17.882 10.200 0 0 0
945 609 1 0.0 11.480 17.882 10.200 0 0 0
513 610 1 0.0 11.480 15.025 7.353 0 0 0
528 611 1 0.0 7.196 19.307 8.780 0 0 0
529 612 1 0.0 8.624 17.882 7.353 0 0 0
927 613 1 0.0 11.480 15.025 10.200 0 0 0
510 614 1 0.0 7.196 16.450 8.780 0 0 0
511 615 1 0.0 8.624 15.025 7.353 0 0 0
512 616 1 0.0 10.052 16.450 8.780 0 0 0
942 617 1 0.0 7.196 19.307 11.637 0 0 0
944 618 1 0.0 10.052 19.307 11.637 0 0 0
924 619 1 0.0 7.196 16.450 11.637 0 0 0
926 620 1 0.0 10.052 16.450 11.637 0 0 0
496 621 1 0.0 12.908 13.600 8.780 0 0 0
498 622 1 0.0 15.763 13.600 8.780 0 0 0
500 623 1 0.0 18.619 13.600 8.780 0 0 0
910 624 1 0.0 12.908 13.600 11.637 0 0 0
912 625 1 0.0 15.763 13.600 11.637 0 0 0
914 626 1 0.0 18.619 13.600 11.637 0 0 0
534 627 1 0.0 15.763 19.307 8.780 0 0 0
535 628 1 0.0 17.191 17.882 7.353 0 0 0
536 629 1 0.0 18.619 19.307 8.780 0 0 0
929 630 1 0.0 14.336 15.025 10.200 0 0 0
931 631 1 0.0 17.191 15.025 10.200 0 0 0
947 632 1 0.0 14.336 17.882 10.200 0 0 0
949 633 1 0.0 17.191 17.882 10.200 0 0 0
514 634 1 0.0 12.908 16.450 8.780 0 0 0
515 635 1 0.0 14.336 15.025 7.353 0 0 0
516 636 1 0.0 15.763 16.450 8.780 0 0 0
517 637 1 0.0 17.191 15.025 7.353 0 0 0
518 638 1 0.0 18.619 16.450 8.780 0 0 0
532 639 1 0.0 12.908 19.307 8.780 0 0 0
533 640 1 0.0 14.336 17.882 7.353 0 0 0
930 641 1 0.0 15.763 16.450 11.637 0 0 0
932 642 1 0.0 18.619 16.450 11.637 0 0 0
946 643 1 0.0 12.908 19.307 11.637 0 0 0
948 644 1 0.0 15.763 19.307 11.637 0 0 0
950 645 1 0.0 18.619 19.307 11.637 0 0 0
928 646 1 0.0 12.908 16.450 11.637 0 0 0
502 647 1 0.0 21.472 13.600 8.780 0 0 0
504 648 1 0.0 24.328 13.600 8.780 0 0 0
916 649 1 0.0 21.472 13.600 11.637 0 0 0
918 650 1 0.0 24.328 13.600 11.637 0 0 0
933 651 1 0.0 20.044 15.025 10.200 0 0 0
935 652 1 0.0 22.900 15.025 10.200 0 0 0
951 653 1 0.0 20.044 17.882 10.200 0 0 0
953 654 1 0.0 22.900 17.882 10.200 0 0 0
519 655 1 0.0 20.044 15.025 7.353 0 0 0
520 656 1 0.0 21.472 16.450 8.780 0 0 0
521 657 1 0.0 22.900 15.025 7.353 0 0 0
522 658 1 0.0 24.328 16.450 8.780 0 0 0
537 659 1 0.0 20.044 17.882 7.353 0 0 0
538 660 1 0.0 21.472 19.307 8.780 0 0 0
539 661 1 0.0 22.900 17.882 7.353 0 0 0
540 662 1 0.0 24.328 19.307 8.780 0 0 0
952 663 1 0.0 21.472 19.307 11.637 0 0 0
954 664 1 0.0 24.328 19.307 11.637 0 0 0
934 665 1 0.0 21.472 16.450 11.637 0 0 0
936 666 1 0.0 24.328 16.450 11.637 0 0 0
545 667 1 0.0 5.768 20.739 7.353 0 0 0
559 668 1 0.0 0.059 23.589 7.353 0 0 0
560 669 1 0.0 1.487 25.020 8.780 0 0 0
561 670 1 0.0 2.912 23.589 7.353 0 0 0
562 671 1 0.0 4.340 25.020 8.780 0 0 0
563 672 1 0.0 5.768 23.589 7.353 0 0 0
955 673 1 0.0 0.059 20.739 10.200 0 0 0
957 674 1 0.0 2.912 20.739 10.200 0 0 0
959 675 1 0.0 5.768 20.739 10.200 0 0 0
973 676 1 0.0 0.059 23.589 10.200 0 0 0
975 677 1 0.0 2.912 23.589 10.200 0 0 0
977 678 1 0.0 5.768 23.589 10.200 0 0 0
541 679 1 0.0 0.059 20.739 7.353 0 0 0
542 680 1 0.0 1.487 22.164 8.780 0 0 0
543 681 1 0.0 2.912 20.739 7.353 0 0 0
544 682 1 0.0 4.340 22.164 8.780 0 0 0
956 683 1 0.0 1.487 22.164 11.637 0 0 0
958 684 1 0.0 4.340 22.164 11.637 0 0 0
974 685 1 0.0 1.487 25.020 11.637 0 0 0
976 686 1 0.0 4.340 25.020 11.637 0 0 0
546 687 1 0.0 7.196 22.164 8.780 0 0 0
547 688 1 0.0 8.624 20.739 7.353 0 0 0
548 689 1 0.0 10.052 22.164 8.780 0 0 0
549 690 1 0.0 11.480 20.739 7.353 0 0 0
564 691 1 0.0 7.196 25.020 8.780 0 0 0
565 692 1 0.0 8.624 23.589 7.353 0 0 0
566 693 1 0.0 10.052 25.020 8.780 0 0 0
567 694 1 0.0 11.480 23.589 7.353 0 0 0
961 695 1 0.0 8.624 20.739 10.200 0 0 0
963 696 1 0.0 11.480 20.739 10.200 0 0 0
979 697 1 0.0 8.624 23.589 10.200 0 0 0
981 698 1 0.0 11.480 23.589 10.200 0 0 0
960 699 1 0.0 7.196 22.164 11.637 0 0 0
962 700 1 0.0 10.052 22.164 11.637 0 0 0
978 701 1 0.0 7.196 25.020 11.637 0 0 0
980 702 1 0.0 10.052 25.020 11.637 0 0 0
570 703 1 0.0 15.763 25.020 8.780 0 0 0
554 704 1 0.0 18.619 22.164 8.780 0 0 0
571 705 1 0.0 17.191 23.589 7.353 0 0 0
983 706 1 0.0 14.336 23.589 10.200 0 0 0
572 707 1 0.0 18.619 25.020 8.780 0 0 0
965 708 1 0.0 14.336 20.739 10.200 0 0 0
552 709 1 0.0 15.763 22.164 8.780 0 0 0
551 710 1 0.0 14.336 20.739 7.353 0 0 0
985 711 1 0.0 17.191 23.589 10.200 0 0 0
568 712 1 0.0 12.908 25.020 8.780 0 0 0
569 713 1 0.0 14.336 23.589 7.353 0 0 0
550 714 1 0.0 12.908 22.164 8.780 0 0 0
967 715 1 0.0 17.191 20.739 10.200 0 0 0
553 716 1 0.0 17.191 20.739 7.353 0 0 0
964 717 1 0.0 12.908 22.164 11.637 0 0 0
966 718 1 0.0 15.763 22.164 11.637 0 0 0
968 719 1 0.0 18.619 22.164 11.637 0 0 0
982 720 1 0.0 12.908 25.020 11.637 0 0 0
984 721 1 0.0 15.763 25.020 11.637 0 0 0
986 722 1 0.0 18.619 25.020 11.637 0 0 0
573 723 1 0.0 20.044 23.589 7.353 0 0 0
574 724 1 0.0 21.472 25.020 8.780 0 0 0
575 725 1 0.0 22.900 23.589 7.353 0 0 0
576 726 1 0.0 24.328 25.020 8.780 0 0 0
969 727 1 0.0 20.044 20.739 10.200 0 0 0
971 728 1 0.0 22.900 20.739 10.200 0 0 0
987 729 1 0.0 20.044 23.589 10.200 0 0 0
989 730 1 0.0 22.900 23.589 10.200 0 0 0
555 731 1 0.0 20.044 20.739 7.353 0 0 0
556 732 1 0.0 21.472 22.164 8.780 0 0 0
557 733 1 0.0 22.900 20.739 7.353 0 0 0
558 734 1 0.0 24.328 22.164 8.780 0 0 0
970 735 1 0.0 21.472 22.164 11.637 0 0 0
972 736 1 0.0 24.328 22.164 11.637 0 0 0
988 737 1 0.0 21.472 25.020 11.637 0 0 0
990 738 1 0.0 24.328 25.020 11.637 0 0 0
577 739 1 0.0 0.059 26.445 7.353 0 0 0
579 740 1 0.0 2.912 26.445 7.353 0 0 0
581 741 1 0.0 5.768 26.445 7.353 0 0 0
991 742 1 0.0 0.059 26.445 10.200 0 0 0
993 743 1 0.0 2.912 26.445 10.200 0 0 0
995 744 1 0.0 5.768 26.445 10.200 0 0 0
613 745 1 0.0 0.059 32.159 7.353 0 0 0
615 746 1 0.0 2.912 32.159 7.353 0 0 0
617 747 1 0.0 5.768 32.159 7.353 0 0 0
578 748 1 0.0 1.487 27.877 8.780 0 0 0
580 749 1 0.0 4.340 27.877 8.780 0 0 0
595 750 1 0.0 0.059 29.302 7.353 0 0 0
596 751 1 0.0 1.487 30.727 8.780 0 0 0
597 752 1 0.0 2.912 29.302 7.353 0 0 0
598 753 1 0.0 4.340 30.727 8.780 0 0 0
599 754 1 0.0 5.768 29.302 7.353 0 0 0
1009 755 1 0.0 0.059 29.302 10.200 0 0 0
1011 756 1 0.0 2.912 29.302 10.200 0 0 0
1013 757 1 0.0 5.768 29.302 10.200 0 0 0
1027 758 1 0.0 0.059 32.159 10.200 0 0 0
1029 759 1 0.0 2.912 32.159 10.200 0 0 0