# LAMMPS data file written by reax_tools

12902 atoms
10429 bonds
7 atom types
1 bond types

0 25.774014 xlo xhi
0 65.670044 ylo yhi
0 85 zlo zhi

Atoms # full

37 1 1 0.0 0.059 5.713 4.505 0 0 0
39 2 1 0.0 2.912 5.713 4.505 0 0 0
41 3 1 0.0 5.768 5.713 4.505 0 0 0
1 4 1 0.0 0.059 0.000 4.505 0 0 0
2 5 1 0.0 1.487 1.425 5.924 0 0 0
3 6 1 0.0 2.912 0.000 4.505 0 0 0
4 7 1 0.0 4.340 1.425 5.924 0 0 0
5 8 1 0.0 5.768 0.000 4.505 0 0 0
19 9 1 0.0 0.059 2.857 4.505 0 0 0
20 10 1 0.0 1.487 4.282 5.924 0 0 0
21 11 1 0.0 2.912 2.857 4.505 0 0 0
22 12 1 0.0 4.340 4.282 5.924 0 0 0
23 13 1 0.0 5.768 2.857 4.505 0 0 0
43 14 1 0.0 8.624 5.713 4.505 0 0 0
45 15 1 0.0 11.480 5.713 4.505 0 0 0
6 16 1 0.0 7.196 1.425 5.924 0 0 0
7 17 1 0.0 8.624 0.000 4.505 0 0 0
8 18 1 0.0 10.052 1.425 5.924 0 0 0
9 19 1 0.0 11.480 0.000 4.505 0 0 0
24 20 1 0.0 7.196 4.282 5.924 0 0 0
25 21 1 0.0 8.624 2.857 4.505 0 0 0
26 22 1 0.0 10.052 4.282 5.924 0 0 0
27 23 1 0.0 11.480 2.857 4.505 0 0 0
47 24 1 0.0 14.336 5.713 4.505 0 0 0
49 25 1 0.0 17.191 5.713 4.505 0 0 0
10 26 1 0.0 12.908 1.425 5.924 0 0 0
11 27 1 0.0 14.336 0.000 4.505 0 0 0
12 28 1 0.0 15.763 1.425 5.924 0 0 0
13 29 1 0.0 17.191 0.000 4.505 0 0 0
14 30 1 0.0 18.619 1.425 5.924 0 0 0
28 31 1 0.0 12.908 4.282 5.924 0 0 0
29 32 1 0.0 14.336 2.857 4.505 0 0 0
30 33 1 0.0 15.763 4.282 5.924 0 0 0
31 34 1 0.0 17.191 2.857 4.505 0 0 0
32 35 1 0.0 18.619 4.282 5.924 0 0 0
33 36 1 0.0 20.044 2.857 4.505 0 0 0
34 37 1 0.0 21.472 4.282 5.924 0 0 0
35 38 1 0.0 22.900 2.857 4.505 0 0 0
36 39 1 0.0 24.328 4.282 5.924 0 0 0
51 40 1 0.0 20.044 5.713 4.505 0 0 0
53 41 1 0.0 22.900 5.713 4.505 0 0 0
15 42 1 0.0 20.044 0.000 4.505 0 0 0
16 43 1 0.0 21.472 1.425 5.924 0 0 0
17 44 1 0.0 22.900 0.000 4.505 0 0 0
18 45 1 0.0 24.328 1.425 5.924 0 0 0
59 46 1 0.0 5.768 8.563 4.505 0 0 0
75 47 1 0.0 2.912 11.420 4.505 0 0 0
73 48 1 0.0 0.059 11.420 4.505 0 0 0
38 49 1 0.0 1.487 7.138 5.924 0 0 0
76 50 1 0.0 4.340 12.852 5.924 0 0 0
57 51 1 0.0 2.912 8.563 4.505 0 0 0
77 52 1 0.0 5.768 11.420 4.505 0 0 0
40 53 1 0.0 4.340 7.138 5.924 0 0 0
58 54 1 0.0 4.340 9.995 5.924 0 0 0
74 55 1 0.0 1.487 12.852 5.924 0 0 0
55 56 1 0.0 0.059 8.563 4.505 0 0 0
56 57 1 0.0 1.487 9.995 5.924 0 0 0
79 58 1 0.0 8.624 11.420 4.505 0 0 0
80 59 1 0.0 10.052 12.852 5.924 0 0 0
81 60 1 0.0 11.480 11.420 4.505 0 0 0
42 61 1 0.0 7.196 7.138 5.924 0 0 0
44 62 1 0.0 10.052 7.138 5.924 0 0 0
60 63 1 0.0 7.196 9.995 5.924 0 0 0
61 64 1 0.0 8.624 8.563 4.505 0 0 0
62 65 1 0.0 10.052 9.995 5.924 0 0 0
63 66 1 0.0 11.480 8.563 4.505 0 0 0
78 67 1 0.0 7.196 12.852 5.924 0 0 0
46 68 1 0.0 12.908 7.138 5.924 0 0 0
48 69 1 0.0 15.763 7.138 5.924 0 0 0
50 70 1 0.0 18.619 7.138 5.924 0 0 0
64 71 1 0.0 12.908 9.995 5.924 0 0 0
65 72 1 0.0 14.336 8.563 4.505 0 0 0
66 73 1 0.0 15.763 9.995 5.924 0 0 0
67 74 1 0.0 17.191 8.563 4.505 0 0 0
68 75 1 0.0 18.619 9.995 5.924 0 0 0
82 76 1 0.0 12.908 12.852 5.924 0 0 0
83 77 1 0.0 14.336 11.420 4.505 0 0 0
84 78 1 0.0 15.763 12.852 5.924 0 0 0
85 79 1 0.0 17.191 11.420 4.505 0 0 0
86 80 1 0.0 18.619 12.852 5.924 0 0 0
52 81 1 0.0 21.472 7.138 5.924 0 0 0
54 82 1 0.0 24.328 7.138 5.924 0 0 0
69 83 1 0.0 20.044 8.563 4.505 0 0 0
70 84 1 0.0 21.472 9.995 5.924 0 0 0
71 85 1 0.0 22.900 8.563 4.505 0 0 0
72 86 1 0.0 24.328 9.995 5.924 0 0 0
87 87 1 0.0 20.044 11.420 4.505 0 0 0
88 88 1 0.0 21.472 12.852 5.924 0 0 0
89 89 1 0.0 22.900 11.420 4.505 0 0 0
90 90 1 0.0 24.328 12.852 5.924 0 0 0
91 91 1 0.0 0.059 14.277 4.505 0 0 0
92 92 1 0.0 1.487 15.702 5.924 0 0 0
93 93 1 0.0 2.912 14.277 4.505 0 0 0
94 94 1 0.0 4.340 15.702 5.924 0 0 0
95 95 1 0.0 5.768 14.277 4.505 0 0 0
109 96 1 0.0 0.059 17.133 4.505 0 0 0
110 97 1 0.0 1.487 18.558 5.924 0 0 0
111 98 1 0.0 2.912 17.133 4.505 0 0 0
112 99 1 0.0 4.340 18.558 5.924 0 0 0
113 100 1 0.0 5.768 17.133 4.505 0 0 0
96 101 1 0.0 7.196 15.702 5.924 0 0 0
97 102 1 0.0 8.624 14.277 4.505 0 0 0
98 103 1 0.0 10.052 15.702 5.924 0 0 0
99 104 1 0.0 11.480 14.277 4.505 0 0 0
114 105 1 0.0 7.196 18.558 5.924 0 0 0
115 106 1 0.0 8.624 17.133 4.505 0 0 0
116 107 1 0.0 10.052 18.558 5.924 0 0 0
117 108 1 0.0 11.480 17.133 4.505 0 0 0
100 109 1 0.0 12.908 15.702 5.924 0 0 0
101 110 1 0.0 14.336 14.277 4.505 0 0 0
102 111 1 0.0 15.763 15.702 5.924 0 0 0
103 112 1 0.0 17.191 14.277 4.505 0 0 0
104 113 1 0.0 18.619 15.702 5.924 0 0 0
118 114 1 0.0 12.908 18.558 5.924 0 0 0
119 115 1 0.0 14.336 17.133 4.505 0 0 0
120 116 1 0.0 15.763 18.558 5.924 0 0 0
121 117 1 0.0 17.191 17.133 4.505 0 0 0
122 118 1 0.0 18.619 18.558 5.924 0 0 0
105 119 1 0.0 20.044 14.277 4.505 0 0 0
106 120 1 0.0 21.472 15.702 5.924 0 0 0
107 121 1 0.0 22.900 14.277 4.505 0 0 0
108 122 1 0.0 24.328 15.702 5.924 0 0 0
123 123 1 0.0 20.044 17.133 4.505 0 0 0
124 124 1 0.0 21.472 18.558 5.924 0 0 0
125 125 1 0.0 22.900 17.133 4.505 0 0 0
126 126 1 0.0 24.328 18.558 5.924 0 0 0
163 127 1 0.0 0.059 25.697 4.505 0 0 0
165 128 1 0.0 2.912 25.697 4.505 0 0 0
167 129 1 0.0 5.768 25.697 4.505 0 0 0
129 130 1 0.0 2.912 19.990 4.505 0 0 0
130 131 1 0.0 4.340 21.415 5.924 0 0 0
131 132 1 0.0 5.768 19.990 4.505 0 0 0
145 133 1 0.0 0.059 22.840 4.505 0 0 0
146 134 1 0.0 1.487 24.272 5.924 0 0 0
147 135 1 0.0 2.912 22.840 4.505 0 0 0
148 136 1 0.0 4.340 24.272 5.924 0 0 0
149 137 1 0.0 5.768 22.840 4.505 0 0 0
127 138 1 0.0 0.059 19.990 4.505 0 0 0
128 139 1 0.0 1.487 21.415 5.924 0 0 0
169 140 1 0.0 8.624 25.697 4.505 0 0 0
171 141 1 0.0 11.480 25.697 4.505 0 0 0
132 142 1 0.0 7.196 21.415 5.924 0 0 0
133 143 1 0.0 8.624 19.990 4.505 0 0 0
134 144 1 0.0 10.052 21.415 5.924 0 0 0
135 145 1 0.0 11.480 19.990 4.505 0 0 0
150 146 1 0.0 7.196 24.272 5.924 0 0 0
151 147 1 0.0 8.624 22.840 4.505 0 0 0
152 148 1 0.0 10.052 24.272 5.924 0 0 0
153 149 1 0.0 11.480 22.840 4.505 0 0 0
139 150 1 0.0 17.191 19.990 4.505 0 0 0
156 151 1 0.0 15.763 24.272 5.924 0 0 0
158 152 1 0.0 18.619 24.272 5.924 0 0 0
175 153 1 0.0 17.191 25.697 4.505 0 0 0
138 154 1 0.0 15.763 21.415 5.924 0 0 0
155 155 1 0.0 14.336 22.840 4.505 0 0 0
154 156 1 0.0 12.908 24.272 5.924 0 0 0
157 157 1 0.0 17.191 22.840 4.505 0 0 0
137 158 1 0.0 14.336 19.990 4.505 0 0 0
140 159 1 0.0 18.619 21.415 5.924 0 0 0
136 160 1 0.0 12.908 21.415 5.924 0 0 0
173 161 1 0.0 14.336 25.697 4.505 0 0 0
141 162 1 0.0 20.044 19.990 4.505 0 0 0
142 163 1 0.0 21.472 21.415 5.924 0 0 0
143 164 1 0.0 22.900 19.990 4.505 0 0 0
144 165 1 0.0 24.328 21.415 5.924 0 0 0
159 166 1 0.0 20.044 22.840 4.505 0 0 0
160 167 1 0.0 21.472 24.272 5.924 0 0 0
161 168 1 0.0 22.900 22.840 4.505 0 0 0
162 169 1 0.0 24.328 24.272 5.924 0 0 0
177 170 1 0.0 20.044 25.697 4.505 0 0 0
179 171 1 0.0 22.900 25.697 4.505 0 0 0
164 172 1 0.0 1.487 27.128 5.924 0 0 0
166 173 1 0.0 4.340 27.128 5.924 0 0 0
181 174 1 0.0 0.059 28.553 4.505 0 0 0
182 175 1 0.0 1.487 29.978 5.924 0 0 0
183 176 1 0.0 2.912 28.553 4.505 0 0 0
184 177 1 0.0 4.340 29.978 5.924 0 0 0
185 178 1 0.0 5.768 28.553 4.505 0 0 0
199 179 1 0.0 0.059 31.410 4.505 0 0 0
201 180 1 0.0 2.912 31.410 4.505 0 0 0
203 181 1 0.0 5.768 31.410 4.505 0 0 0
168 182 1 0.0 7.196 27.128 5.924 0 0 0
170 183 1 0.0 10.052 27.128 5.924 0 0 0
186 184 1 0.0 7.196 29.978 5.924 0 0 0
187 185 1 0.0 8.624 28.553 4.505 0 0 0
188 186 1 0.0 10.052 29.978 5.924 0 0 0
189 187 1 0.0 11.480 28.553 4.505 0 0 0
205 188 1 0.0 8.624 31.410 4.505 0 0 0
207 189 1 0.0 11.480 31.410 4.505 0 0 0
172 190 1 0.0 12.908 27.128 5.924 0 0 0
174 191 1 0.0 15.763 27.128 5.924 0 0 0
176 192 1 0.0 18.619 27.128 5.924 0 0 0
190 193 1 0.0 12.908 29.978 5.924 0 0 0
191 194 1 0.0 14.336 28.553 4.505 0 0 0
192 195 1 0.0 15.763 29.978 5.924 0 0 0
193 196 1 0.0 17.191 28.553 4.505 0 0 0
194 197 1 0.0 18.619 29.978 5.924 0 0 0
209 198 1 0.0 14.336 31.410 4.505 0 0 0
211 199 1 0.0 17.191 31.410 4.505 0 0 0
198 200 1 0.0 24.328 29.978 5.924 0 0 0
213 201 1 0.0 20.044 31.410 4.505 0 0 0
215 202 1 0.0 22.900 31.410 4.505 0 0 0
178 203 1 0.0 21.472 27.128 5.924 0 0 0
180 204 1 0.0 24.328 27.128 5.924 0 0 0
195 205 1 0.0 20.044 28.553 4.505 0 0 0
196 206 1 0.0 21.472 29.978 5.924 0 0 0
197 207 1 0.0 22.900 28.553 4.505 0 0 0
200 208 1 0.0 1.487 32.835 5.924 0 0 0
202 209 1 0.0 4.340 32.835 5.924 0 0 0
217 210 1 0.0 0.059 34.267 4.505 0 0 0
218 211 1 0.0 1.487 35.692 5.924 0 0 0
219 212 1 0.0 2.912 34.267 4.505 0 0 0
220 213 1 0.0 4.340 35.692 5.924 0 0 0
221 214 1 0.0 5.768 34.267 4.505 0 0 0
235 215 1 0.0 0.059 37.117 4.505 0 0 0
236 216 1 0.0 1.487 38.548 5.924 0 0 0
237 217 1 0.0 2.912 37.117 4.505 0 0 0
238 218 1 0.0 4.340 38.548 5.924 0 0 0
239 219 1 0.0 5.768 37.117 4.505 0 0 0
204 220 1 0.0 7.196 32.835 5.924 0 0 0
206 221 1 0.0 10.052 32.835 5.924 0 0 0
222 222 1 0.0 7.196 35.692 5.924 0 0 0
223 223 1 0.0 8.624 34.267 4.505 0 0 0
224 224 1 0.0 10.052 35.692 5.924 0 0 0
225 225 1 0.0 11.480 34.267 4.505 0 0 0
240 226 1 0.0 7.196 38.548 5.924 0 0 0
241 227 1 0.0 8.624 37.117 4.505 0 0 0
242 228 1 0.0 10.052 38.548 5.924 0 0 0
243 229 1 0.0 11.480 37.117 4.505 0 0 0
208 230 1 0.0 12.908 32.835 5.924 0 0 0
210 231 1 0.0 15.763 32.835 5.924 0 0 0
212 232 1 0.0 18.619 32.835 5.924 0 0 0
226 233 1 0.0 12.908 35.692 5.924 0 0 0
227 234 1 0.0 14.336 34.267 4.505 0 0 0
228 235 1 0.0 15.763 35.692 5.924 0 0 0
229 236 1 0.0 17.191 34.267 4.505 0 0 0
230 237 1 0.0 18.619 35.692 5.924 0 0 0
244 238 1 0.0 12.908 38.548 5.924 0 0 0
245 239 1 0.0 14.336 37.117 4.505 0 0 0
246 240 1 0.0 15.763 38.548 5.924 0 0 0
247 241 1 0.0 17.191 37.117 4.505 0 0 0
248 242 1 0.0 18.619 38.548 5.924 0 0 0
251 243 1 0.0 22.900 37.117 4.505 0 0 0
252 244 1 0.0 24.328 38.548 5.924 0 0 0
214 245 1 0.0 21.472 32.835 5.924 0 0 0
216 246 1 0.0 24.328 32.835 5.924 0 0 0
231 247 1 0.0 20.044 34.267 4.505 0 0 0
232 248 1 0.0 21.472 35.692 5.924 0 0 0
233 249 1 0.0 22.900 34.267 4.505 0 0 0
234 250 1 0.0 24.328 35.692 5.924 0 0 0
249 251 1 0.0 20.044 37.117 4.505 0 0 0
250 252 1 0.0 21.472 38.548 5.924 0 0 0
254 253 1 0.0 1.487 41.405 5.924 0 0 0
253 254 1 0.0 0.059 39.973 4.505 0 0 0
256 255 1 0.0 4.340 41.405 5.924 0 0 0
274 256 1 0.0 4.340 44.255 5.924 0 0 0
257 257 1 0.0 5.768 39.973 4.505 0 0 0
271 258 1 0.0 0.059 42.830 4.505 0 0 0
289 259 1 0.0 0.059 45.687 4.505 0 0 0
293 260 1 0.0 5.768 45.687 4.505 0 0 0
255 261 1 0.0 2.912 39.973 4.505 0 0 0
272 262 1 0.0 1.487 44.255 5.924 0 0 0
291 263 1 0.0 2.912 45.687 4.505 0 0 0
273 264 1 0.0 2.912 42.830 4.505 0 0 0
275 265 1 0.0 5.768 42.830 4.505 0 0 0
295 266 1 0.0 8.624 45.687 4.505 0 0 0
297 267 1 0.0 11.480 45.687 4.505 0 0 0
258 268 1 0.0 7.196 41.405 5.924 0 0 0
259 269 1 0.0 8.624 39.973 4.505 0 0 0
260 270 1 0.0 10.052 41.405 5.924 0 0 0
261 271 1 0.0 11.480 39.973 4.505 0 0 0
276 272 1 0.0 7.196 44.255 5.924 0 0 0
277 273 1 0.0 8.624 42.830 4.505 0 0 0
278 274 1 0.0 10.052 44.255 5.924 0 0 0
279 275 1 0.0 11.480 42.830 4.505 0 0 0
262 276 1 0.0 12.908 41.405 5.924 0 0 0
263 277 1 0.0 14.336 39.973 4.505 0 0 0
264 278 1 0.0 15.763 41.405 5.924 0 0 0
265 279 1 0.0 17.191 39.973 4.505 0 0 0
266 280 1 0.0 18.619 41.405 5.924 0 0 0
280 281 1 0.0 12.908 44.255 5.924 0 0 0
281 282 1 0.0 14.336 42.830 4.505 0 0 0
282 283 1 0.0 15.763 44.255 5.924 0 0 0
283 284 1 0.0 17.191 42.830 4.505 0 0 0
284 285 1 0.0 18.619 44.255 5.924 0 0 0
299 286 1 0.0 14.336 45.687 4.505 0 0 0
301 287 1 0.0 17.191 45.687 4.505 0 0 0
303 288 1 0.0 20.044 45.687 4.505 0 0 0
305 289 1 0.0 22.900 45.687 4.505 0 0 0
267 290 1 0.0 20.044 39.973 4.505 0 0 0
268 291 1 0.0 21.472 41.405 5.924 0 0 0
269 292 1 0.0 22.900 39.973 4.505 0 0 0
270 293 1 0.0 24.328 41.405 5.924 0 0 0
285 294 1 0.0 20.044 42.830 4.505 0 0 0
286 295 1 0.0 21.472 44.255 5.924 0 0 0
287 296 1 0.0 22.900 42.830 4.505 0 0 0
288 297 1 0.0 24.328 44.255 5.924 0 0 0
290 298 1 0.0 1.487 47.112 5.924 0 0 0
292 299 1 0.0 4.340 47.112 5.924 0 0 0
307 300 1 0.0 0.059 48.543 4.505 0 0 0
308 301 1 0.0 1.487 49.968 5.924 0 0 0
309 302 1 0.0 2.912 48.543 4.505 0 0 0
310 303 1 0.0 4.340 49.968 5.924 0 0 0
311 304 1 0.0 5.768 48.543 4.505 0 0 0
325 305 1 0.0 0.059 51.393 4.505 0 0 0
327 306 1 0.0 2.912 51.393 4.505 0 0 0
329 307 1 0.0 5.768 51.393 4.505 0 0 0
294 308 1 0.0 7.196 47.112 5.924 0 0 0
296 309 1 0.0 10.052 47.112 5.924 0 0 0
312 310 1 0.0 7.196 49.968 5.924 0 0 0
313 311 1 0.0 8.624 48.543 4.505 0 0 0
314 312 1 0.0 10.052 49.968 5.924 0 0 0
315 313 1 0.0 11.480 48.543 4.505 0 0 0
331 314 1 0.0 8.624 51.393 4.505 0 0 0
333 315 1 0.0 11.480 51.393 4.505 0 0 0
335 316 1 0.0 14.336 51.393 4.505 0 0 0
337 317 1 0.0 17.191 51.393 4.505 0 0 0
298 318 1 0.0 12.908 47.112 5.924 0 0 0
300 319 1 0.0 15.763 47.112 5.924 0 0 0
302 320 1 0.0 18.619 47.112 5.924 0 0 0
316 321 1 0.0 12.908 49.968 5.924 0 0 0
317 322 1 0.0 14.336 48.543 4.505 0 0 0
318 323 1 0.0 15.763 49.968 5.924 0 0 0
319 324 1 0.0 17.191 48.543 4.505 0 0 0
320 325 1 0.0 18.619 49.968 5.924 0 0 0
304 326 1 0.0 21.472 47.112 5.924 0 0 0
306 327 1 0.0 24.328 47.112 5.924 0 0 0
321 328 1 0.0 20.044 48.543 4.505 0 0 0
322 329 1 0.0 21.472 49.968 5.924 0 0 0
323 330 1 0.0 22.900 48.543 4.505 0 0 0
324 331 1 0.0 24.328 49.968 5.924 0 0 0
339 332 1 0.0 20.044 51.393 4.505 0 0 0
341 333 1 0.0 22.900 51.393 4.505 0 0 0
326 334 1 0.0 1.487 52.825 5.924 0 0 0
328 335 1 0.0 4.340 52.825 5.924 0 0 0
343 336 1 0.0 0.059 54.250 4.505 0 0 0
344 337 1 0.0 1.487 55.682 5.924 0 0 0
345 338 1 0.0 2.912 54.250 4.505 0 0 0
346 339 1 0.0 4.340 55.682 5.924 0 0 0
347 340 1 0.0 5.768 54.250 4.505 0 0 0
361 341 1 0.0 0.059 57.107 4.505 0 0 0
362 342 1 0.0 1.487 58.532 5.924 0 0 0
363 343 1 0.0 2.912 57.107 4.505 0 0 0
364 344 1 0.0 4.340 58.532 5.924 0 0 0
365 345 1 0.0 5.768 57.107 4.505 0 0 0
330 346 1 0.0 7.196 52.825 5.924 0 0 0
332 347 1 0.0 10.052 52.825 5.924 0 0 0
348 348 1 0.0 7.196 55.682 5.924 0 0 0
349 349 1 0.0 8.624 54.250 4.505 0 0 0
350 350 1 0.0 10.052 55.682 5.924 0 0 0
351 351 1 0.0 11.480 54.250 4.505 0 0 0
366 352 1 0.0 7.196 58.532 5.924 0 0 0
367 353 1 0.0 8.624 57.107 4.505 0 0 0
368 354 1 0.0 10.052 58.532 5.924 0 0 0
369 355 1 0.0 11.480 57.107 4.505 0 0 0
355 356 1 0.0 17.191 54.250 4.505 0 0 0
356 357 1 0.0 18.619 55.682 5.924 0 0 0
334 358 1 0.0 12.908 52.825 5.924 0 0 0
370 359 1 0.0 12.908 58.532 5.924 0 0 0
336 360 1 0.0 15.763 52.825 5.924 0 0 0
371 361 1 0.0 14.336 57.107 4.505 0 0 0
372 362 1 0.0 15.763 58.532 5.924 0 0 0
373 363 1 0.0 17.191 57.107 4.505 0 0 0
374 364 1 0.0 18.619 58.532 5.924 0 0 0
338 365 1 0.0 18.619 52.825 5.924 0 0 0
353 366 1 0.0 14.336 54.250 4.505 0 0 0
352 367 1 0.0 12.908 55.682 5.924 0 0 0
354 368 1 0.0 15.763 55.682 5.924 0 0 0
357 369 1 0.0 20.044 54.250 4.505 0 0 0
358 370 1 0.0 21.472 55.682 5.924 0 0 0
359 371 1 0.0 22.900 54.250 4.505 0 0 0
360 372 1 0.0 24.328 55.682 5.924 0 0 0
375 373 1 0.0 20.044 57.107 4.505 0 0 0
376 374 1 0.0 21.472 58.532 5.924 0 0 0
377 375 1 0.0 22.900 57.107 4.505 0 0 0
378 376 1 0.0 24.328 58.532 5.924 0 0 0
340 377 1 0.0 21.472 52.825 5.924 0 0 0
342 378 1 0.0 24.328 52.825 5.924 0 0 0
397 379 1 0.0 0.059 62.820 4.505 0 0 0
398 380 1 0.0 1.487 64.245 5.924 0 0 0
399 381 1 0.0 2.912 62.820 4.505 0 0 0
400 382 1 0.0 4.340 64.245 5.924 0 0 0
401 383 1 0.0 5.768 62.820 4.505 0 0 0
379 384 1 0.0 0.059 59.963 4.505 0 0 0
380 385 1 0.0 1.487 61.388 5.924 0 0 0
381 386 1 0.0 2.912 59.963 4.505 0 0 0
382 387 1 0.0 4.340 61.388 5.924 0 0 0
383 388 1 0.0 5.768 59.963 4.505 0 0 0
385 389 1 0.0 8.624 59.963 4.505 0 0 0
386 390 1 0.0 10.052 61.388 5.924 0 0 0
387 391 1 0.0 11.480 59.963 4.505 0 0 0
402 392 1 0.0 7.196 64.245 5.924 0 0 0
403 393 1 0.0 8.624 62.820 4.505 0 0 0
404 394 1 0.0 10.052 64.245 5.924 0 0 0
405 395 1 0.0 11.480 62.820 4.505 0 0 0
384 396 1 0.0 7.196 61.388 5.924 0 0 0
388 397 1 0.0 12.908 61.388 5.924 0 0 0
389 398 1 0.0 14.336 59.963 4.505 0 0 0
390 399 1 0.0 15.763 61.388 5.924 0 0 0
391 400 1 0.0 17.191 59.963 4.505 0 0 0
392 401 1 0.0 18.619 61.388 5.924 0 0 0
406 402 1 0.0 12.908 64.245 5.924 0 0 0
407 403 1 0.0 14.336 62.820 4.505 0 0 0
408 404 1 0.0 15.763 64.245 5.924 0 0 0
409 405 1 0.0 17.191 62.820 4.505 0 0 0
410 406 1 0.0 18.619 64.245 5.924 0 0 0
393 407 1 0.0 20.044 59.963 4.505 0 0 0
394 408 1 0.0 21.472 61.388 5.924 0 0 0
395 409 1 0.0 22.900 59.963 4.505 0 0 0
396 410 1 0.0 24.328 61.388 5.924 0 0 0
411 411 1 0.0 20.044 62.820 4.505 0 0 0
412 412 1 0.0 21.472 64.245 5.924 0 0 0
413 413 1 0.0 22.900 62.820 4.505 0 0 0
414 414 1 0.0 24.328 64.245 5.924 0 0 0
851 415 1 0.0 5.768 2.857 10.200 0 0 0
865 416 1 0.0 0.059 5.713 10.200 0 0 0
867 417 1 0.0 2.912 5.713 10.200 0 0 0
869 418 1 0.0 5.768 5.713 10.200 0 0 0
451 419 1 0.0 0.059 5.713 7.353 0 0 0
453 420 1 0.0 2.912 5.713 7.353 0 0 0
455 421 1 0.0 5.768 5.713 7.353 0 0 0
415 422 1 0.0 0.059 0.000 7.353 0 0 0
416 423 1 0.0 1.487 1.425 8.780 0 0 0
417 424 1 0.0 2.912 0.000 7.353 0 0 0
418 425 1 0.0 4.340 1.425 8.780 0 0 0
829 426 1 0.0 0.059 0.000 10.200 0 0 0
419 427 1 0.0 5.768 0.000 7.353 0 0 0
831 428 1 0.0 2.912 0.000 10.200 0 0 0
433 429 1 0.0 0.059 2.857 7.353 0 0 0
434 430 1 0.0 1.487 4.282 8.780 0 0 0
435 431 1 0.0 2.912 2.857 7.353 0 0 0
436 432 1 0.0 4.340 4.282 8.780 0 0 0
437 433 1 0.0 5.768 2.857 7.353 0 0 0
833 434 1 0.0 5.768 0.000 10.200 0 0 0
847 435 1 0.0 0.059 2.857 10.200 0 0 0
849 436 1 0.0 2.912 2.857 10.200 0 0 0
830 437 1 0.0 1.487 1.425 11.637 0 0 0
832 438 1 0.0 4.340 1.425 11.637 0 0 0
848 439 1 0.0 1.487 4.282 11.637 0 0 0
850 440 1 0.0 4.340 4.282 11.637 0 0 0
420 441 1 0.0 7.196 1.425 8.780 0 0 0
421 442 1 0.0 8.624 0.000 7.353 0 0 0
422 443 1 0.0 10.052 1.425 8.780 0 0 0
423 444 1 0.0 11.480 0.000 7.353 0 0 0
438 445 1 0.0 7.196 4.282 8.780 0 0 0
439 446 1 0.0 8.624 2.857 7.353 0 0 0
440 447 1 0.0 10.052 4.282 8.780 0 0 0
441 448 1 0.0 11.480 2.857 7.353 0 0 0
835 449 1 0.0 8.624 0.000 10.200 0 0 0
837 450 1 0.0 11.480 0.000 10.200 0 0 0
853 451 1 0.0 8.624 2.857 10.200 0 0 0
855 452 1 0.0 11.480 2.857 10.200 0 0 0
871 453 1 0.0 8.624 5.713 10.200 0 0 0
873 454 1 0.0 11.480 5.713 10.200 0 0 0
457 455 1 0.0 8.624 5.713 7.353 0 0 0
459 456 1 0.0 11.480 5.713 7.353 0 0 0
834 457 1 0.0 7.196 1.425 11.637 0 0 0
836 458 1 0.0 10.052 1.425 11.637 0 0 0
852 459 1 0.0 7.196 4.282 11.637 0 0 0
854 460 1 0.0 10.052 4.282 11.637 0 0 0
424 461 1 0.0 12.908 1.425 8.780 0 0 0
425 462 1 0.0 14.336 0.000 7.353 0 0 0
426 463 1 0.0 15.763 1.425 8.780 0 0 0
427 464 1 0.0 17.191 0.000 7.353 0 0 0
428 465 1 0.0 18.619 1.425 8.780 0 0 0
442 466 1 0.0 12.908 4.282 8.780 0 0 0
443 467 1 0.0 14.336 2.857 7.353 0 0 0
444 468 1 0.0 15.763 4.282 8.780 0 0 0
445 469 1 0.0 17.191 2.857 7.353 0 0 0
446 470 1 0.0 18.619 4.282 8.780 0 0 0
839 471 1 0.0 14.336 0.000 10.200 0 0 0
841 472 1 0.0 17.191 0.000 10.200 0 0 0
857 473 1 0.0 14.336 2.857 10.200 0 0 0
859 474 1 0.0 17.191 2.857 10.200 0 0 0
875 475 1 0.0 14.336 5.713 10.200 0 0 0
877 476 1 0.0 17.191 5.713 10.200 0 0 0
461 477 1 0.0 14.336 5.713 7.353 0 0 0
463 478 1 0.0 17.191 5.713 7.353 0 0 0
838 479 1 0.0 12.908 1.425 11.637 0 0 0
840 480 1 0.0 15.763 1.425 11.637 0 0 0
842 481 1 0.0 18.619 1.425 11.637 0 0 0
856 482 1 0.0 12.908 4.282 11.637 0 0 0
858 483 1 0.0 15.763 4.282 11.637 0 0 0
860 484 1 0.0 18.619 4.282 11.637 0 0 0
429 485 1 0.0 20.044 0.000 7.353 0 0 0
430 486 1 0.0 21.472 1.425 8.780 0 0 0
431 487 1 0.0 22.900 0.000 7.353 0 0 0
432 488 1 0.0 24.328 1.425 8.780 0 0 0
447 489 1 0.0 20.044 2.857 7.353 0 0 0
448 490 1 0.0 21.472 4.282 8.780 0 0 0
843 491 1 0.0 20.044 0.000 10.200 0 0 0
845 492 1 0.0 22.900 0.000 10.200 0 0 0
861 493 1 0.0 20.044 2.857 10.200 0 0 0
863 494 1 0.0 22.900 2.857 10.200 0 0 0
879 495 1 0.0 20.044 5.713 10.200 0 0 0
881 496 1 0.0 22.900 5.713 10.200 0 0 0
449 497 1 0.0 22.900 2.857 7.353 0 0 0
450 498 1 0.0 24.328 4.282 8.780 0 0 0
465 499 1 0.0 20.044 5.713 7.353 0 0 0
467 500 1 0.0 22.900 5.713 7.353 0 0 0
844 501 1 0.0 21.472 1.425 11.637 0 0 0
846 502 1 0.0 24.328 1.425 11.637 0 0 0
862 503 1 0.0 21.472 4.282 11.637 0 0 0
864 504 1 0.0 24.328 4.282 11.637 0 0 0
470 505 1 0.0 1.487 9.995 8.780 0 0 0
887 506 1 0.0 5.768 8.563 10.200 0 0 0
905 507 1 0.0 5.768 11.420 10.200 0 0 0
488 508 1 0.0 1.487 12.852 8.780 0 0 0
454 509 1 0.0 4.340 7.138 8.780 0 0 0
901 510 1 0.0 0.059 11.420 10.200 0 0 0
472 511 1 0.0 4.340 9.995 8.780 0 0 0
452 512 1 0.0 1.487 7.138 8.780 0 0 0
473 513 1 0.0 5.768 8.563 7.353 0 0 0
885 514 1 0.0 2.912 8.563 10.200 0 0 0
469 515 1 0.0 0.059 8.563 7.353 0 0 0
903 516 1 0.0 2.912 11.420 10.200 0 0 0
489 517 1 0.0 2.912 11.420 7.353 0 0 0
491 518 1 0.0 5.768 11.420 7.353 0 0 0
490 519 1 0.0 4.340 12.852 8.780 0 0 0
487 520 1 0.0 0.059 11.420 7.353 0 0 0
883 521 1 0.0 0.059 8.563 10.200 0 0 0
471 522 1 0.0 2.912 8.563 7.353 0 0 0
866 523 1 0.0 1.487 7.138 11.637 0 0 0
868 524 1 0.0 4.340 7.138 11.637 0 0 0
884 525 1 0.0 1.487 9.995 11.637 0 0 0
886 526 1 0.0 4.340 9.995 11.637 0 0 0
902 527 1 0.0 1.487 12.852 11.637 0 0 0
904 528 1 0.0 4.340 12.852 11.637 0 0 0
889 529 1 0.0 8.624 8.563 10.200 0 0 0
891 530 1 0.0 11.480 8.563 10.200 0 0 0
456 531 1 0.0 7.196 7.138 8.780 0 0 0
907 532 1 0.0 8.624 11.420 10.200 0 0 0
458 533 1 0.0 10.052 7.138 8.780 0 0 0
474 534 1 0.0 7.196 9.995 8.780 0 0 0
909 535 1 0.0 11.480 11.420 10.200 0 0 0
475 536 1 0.0 8.624 8.563 7.353 0 0 0
476 537 1 0.0 10.052 9.995 8.780 0 0 0
477 538 1 0.0 11.480 8.563 7.353 0 0 0
492 539 1 0.0 7.196 12.852 8.780 0 0 0
493 540 1 0.0 8.624 11.420 7.353 0 0 0
494 541 1 0.0 10.052 12.852 8.780 0 0 0
495 542 1 0.0 11.480 11.420 7.353 0 0 0
908 543 1 0.0 10.052 12.852 11.637 0 0 0
890 544 1 0.0 10.052 9.995 11.637 0 0 0
870 545 1 0.0 7.196 7.138 11.637 0 0 0
906 546 1 0.0 7.196 12.852 11.637 0 0 0
872 547 1 0.0 10.052 7.138 11.637 0 0 0
888 548 1 0.0 7.196 9.995 11.637 0 0 0
893 549 1 0.0 14.336 8.563 10.200 0 0 0
895 550 1 0.0 17.191 8.563 10.200 0 0 0
460 551 1 0.0 12.908 7.138 8.780 0 0 0
911 552 1 0.0 14.336 11.420 10.200 0 0 0
462 553 1 0.0 15.763 7.138 8.780 0 0 0
464 554 1 0.0 18.619 7.138 8.780 0 0 0
913 555 1 0.0 17.191 11.420 10.200 0 0 0
478 556 1 0.0 12.908 9.995 8.780 0 0 0
479 557 1 0.0 14.336 8.563 7.353 0 0 0
480 558 1 0.0 15.763 9.995 8.780 0 0 0
481 559 1 0.0 17.191 8.563 7.353 0 0 0
482 560 1 0.0 18.619 9.995 8.780 0 0 0
496 561 1 0.0 12.908 12.852 8.780 0 0 0
497 562 1 0.0 14.336 11.420 7.353 0 0 0
498 563 1 0.0 15.763 12.852 8.780 0 0 0
499 564 1 0.0 17.191 11.420 7.353 0 0 0
500 565 1 0.0 18.619 12.852 8.780 0 0 0
874 566 1 0.0 12.908 7.138 11.637 0 0 0
876 567 1 0.0 15.763 7.138 11.637 0 0 0
878 568 1 0.0 18.619 7.138 11.637 0 0 0
892 569 1 0.0 12.908 9.995 11.637 0 0 0
894 570 1 0.0 15.763 9.995 11.637 0 0 0
896 571 1 0.0 18.619 9.995 11.637 0 0 0
910 572 1 0.0 12.908 12.852 11.637 0 0 0
912 573 1 0.0 15.763 12.852 11.637 0 0 0
914 574 1 0.0 18.619 12.852 11.637 0 0 0
466 575 1 0.0 21.472 7.138 8.780 0 0 0
897 576 1 0.0 20.044 8.563 10.200 0 0 0
468 577 1 0.0 24.328 7.138 8.780 0 0 0
899 578 1 0.0 22.900 8.563 10.200 0 0 0
915 579 1 0.0 20.044 11.420 10.200 0 0 0
917 580 1 0.0 22.900 11.420 10.200 0 0 0
483 581 1 0.0 20.044 8.563 7.353 0 0 0
484 582 1 0.0 21.472 9.995 8.780 0 0 0
485 583 1 0.0 22.900 8.563 7.353 0 0 0
486 584 1 0.0 24.328 9.995 8.780 0 0 0
501 585 1 0.0 20.044 11.420 7.353 0 0 0
502 586 1 0.0 21.472 12.852 8.780 0 0 0
503 587 1 0.0 22.900 11.420 7.353 0 0 0
504 588 1 0.0 24.328 12.852 8.780 0 0 0
880 589 1 0.0 21.472 7.138 11.637 0 0 0
882 590 1 0.0 24.328 7.138 11.637 0 0 0
898 591 1 0.0 21.472 9.995 11.637 0 0 0
900 592 1 0.0 24.328 9.995 11.637 0 0 0
916 593 1 0.0 21.472 12.852 11.637 0 0 0
918 594 1 0.0 24.328 12.852 11.637 0 0 0
937 595 1 0.0 0.059 17.133 10.200 0 0 0
939 596 1 0.0 2.912 17.133 10.200 0 0 0
941 597 1 0.0 5.768 17.133 10.200 0 0 0
523 598 1 0.0 0.059 17.133 7.353 0 0 0
524 599 1 0.0 1.487 18.558 8.780 0 0 0
525 600 1 0.0 2.912 17.133 7.353 0 0 0
526 601 1 0.0 4.340 18.558 8.780 0 0 0
527 602 1 0.0 5.768 17.133 7.353 0 0 0
919 603 1 0.0 0.059 14.277 10.200 0 0 0
921 604 1 0.0 2.912 14.277 10.200 0 0 0
923 605 1 0.0 5.768 14.277 10.200 0 0 0
505 606 1 0.0 0.059 14.277 7.353 0 0 0
506 607 1 0.0 1.487 15.702 8.780 0 0 0
507 608 1 0.0 2.912 14.277 7.353 0 0 0
508 609 1 0.0 4.340 15.702 8.780 0 0 0
509 610 1 0.0 5.768 14.277 7.353 0 0 0
938 611 1 0.0 1.487 18.558 11.637 0 0 0
940 612 1 0.0 4.340 18.558 11.637 0 0 0
920 613 1 0.0 1.487 15.702 11.637 0 0 0
922 614 1 0.0 4.340 15.702 11.637 0 0 0
530 615 1 0.0 10.052 18.558 8.780 0 0 0
531 616 1 0.0 11.480 17.133 7.353 0 0 0
925 617 1 0.0 8.624 14.277 10.200 0 0 0
943 618 1 0.0 8.624 17.133 10.200 0 0 0
945 619 1 0.0 11.480 17.133 10.200 0 0 0
513 620 1 0.0 11.480 14.277 7.353 0 0 0
528 621 1 0.0 7.196 18.558 8.780 0 0 0
529 622 1 0.0 8.624 17.133 7.353 0 0 0
927 623 1 0.0 11.480 14.277 10.200 0 0 0
510 624 1 0.0 7.196 15.702 8.780 0 0 0
511 625 1 0.0 8.624 14.277 7.353 0 0 0
512 626 1 0.0 10.052 15.702 8.780 0 0 0
942 627 1 0.0 7.196 18.558 11.637 0 0 0
944 628 1 0.0 10.052 18.558 11.637 0 0 0
924 629 1 0.0 7.196 15.702 11.637 0 0 0
926 630 1 0.0 10.052 15.702 11.637 0 0 0
534 631 1 0.0 15.763 18.558 8.780 0 0 0
535 632 1 0.0 17.191 17.133 7.353 0 0 0
536 633 1 0.0 18.619 18.558 8.780 0 0 0
929 634 1 0.0 14.336 14.277 10.200 0 0 0
931 635 1 0.0 17.191 14.277 10.200 0 0 0
947 636 1 0.0 14.336 17.133 10.200 0 0 0
949 637 1 0.0 17.191 17.133 10.200 0 0 0
514 638 1 0.0 12.908 15.702 8.780 0 0 0
515 639 1 0.0 14.336 14.277 7.353 0 0 0
516 640 1 0.0 15.763 15.702 8.780 0 0 0
517 641 1 0.0 17.191 14.277 7.353 0 0 0
518 642 1 0.0 18.619 15.702 8.780 0 0 0
532 643 1 0.0 12.908 18.558 8.780 0 0 0
533 644 1 0.0 14.336 17.133 7.353 0 0 0
930 645 1 0.0 15.763 15.702 11.637 0 0 0
932 646 1 0.0 18.619 15.702 11.637 0 0 0
946 647 1 0.0 12.908 18.558 11.637 0 0 0
948 648 1 0.0 15.763 18.558 11.637 0 0 0
950 649 1 0.0 18.619 18.558 11.637 0 0 0
928 650 1 0.0 12.908 15.702 11.637 0 0 0
933 651 1 0.0 20.044 14.277 10.200 0 0 0
935 652 1 0.0 22.900 14.277 10.200 0 0 0
951 653 1 0.0 20.044 17.133 10.200 0 0 0
953 654 1 0.0 22.900 17.133 10.200 0 0 0
519 655 1 0.0 20.044 14.277 7.353 0 0 0
520 656 1 0.0 21.472 15.702 8.780 0 0 0
521 657 1 0.0 22.900 14.277 7.353 0 0 0
522 658 1 0.0 24.328 15.702 8.780 0 0 0
537 659 1 0.0 20.044 17.133 7.353 0 0 0
538 660 1 0.0 21.472 18.558 8.780 0 0 0
539 661 1 0.0 22.900 17.133 7.353 0 0 0
540 662 1 0.0 24.328 18.558 8.780 0 0 0
952 663 1 0.0 21.472 18.558 11.637 0 0 0
954 664 1 0.0 24.328 18.558 11.637 0 0 0
934 665 1 0.0 21.472 15.702 11.637 0 0 0
936 666 1 0.0 24.328 15.702 11.637 0 0 0
545 667 1 0.0 5.768 19.990 7.353 0 0 0
559 668 1 0.0 0.059 22.840 7.353 0 0 0
560 669 1 0.0 1.487 24.272 8.780 0 0 0
561 670 1 0.0 2.912 22.840 7.353 0 0 0
562 671 1 0.0 4.340 24.272 8.780 0 0 0
563 672 1 0.0 5.768 22.840 7.353 0 0 0
955 673 1 0.0 0.059 19.990 10.200 0 0 0
957 674 1 0.0 2.912 19.990 10.200 0 0 0
959 675 1 0.0 5.768 19.990 10.200 0 0 0
577 676 1 0.0 0.059 25.697 7.353 0 0 0
579 677 1 0.0 2.912 25.697 7.353 0 0 0
581 678 1 0.0 5.768 25.697 7.353 0 0 0
973 679 1 0.0 0.059 22.840 10.200 0 0 0
975 680 1 0.0 2.912 22.840 10.200 0 0 0
977 681 1 0.0 5.768 22.840 10.200 0 0 0
991 682 1 0.0 0.059 25.697 10.200 0 0 0
993 683 1 0.0 2.912 25.697 10.200 0 0 0
541 684 1 0.0 0.059 19.990 7.353 0 0 0
542 685 1 0.0 1.487 21.415 8.780 0 0 0
543 686 1 0.0 2.912 19.990 7.353 0 0 0
544 687 1 0.0 4.340 21.415 8.780 0 0 0
995 688 1 0.0 5.768 25.697 10.200 0 0 0
956 689 1 0.0 1.487 21.415 11.637 0 0 0
958 690 1 0.0 4.340 21.415 11.637 0 0 0
974 691 1 0.0 1.487 24.272 11.637 0 0 0
976 692 1 0.0 4.340 24.272 11.637 0 0 0
546 693 1 0.0 7.196 21.415 8.780 0 0 0
547 694 1 0.0 8.624 19.990 7.353 0 0 0
548 695 1 0.0 10.052 21.415 8.780 0 0 0
549 696 1 0.0 11.480 19.990 7.353 0 0 0
564 697 1 0.0 7.196 24.272 8.780 0 0 0
565 698 1 0.0 8.624 22.840 7.353 0 0 0
566 699 1 0.0 10.052 24.272 8.780 0 0 0
567 700 1 0.0 11.480 22.840 7.353 0 0 0
583 701 1 0.0 8.624 25.697 7.353 0 0 0
585 702 1 0.0 11.480 25.697 7.353 0 0 0
961 703 1 0.0 8.624 19.990 10.200 0 0 0
963 704 1 0.0 11.480 19.990 10.200 0 0 0
979 705 1 0.0 8.624 22.840 10.200 0 0 0
981 706 1 0.0 11.480 22.840 10.200 0 0 0
997 707 1 0.0 8.624 25.697 10.200 0 0 0
999 708 1 0.0 11.480 25.697 10.200 0 0 0
960 709 1 0.0 7.196 21.415 11.637 0 0 0
962 710 1 0.0 10.052 21.415 11.637 0 0 0
978 711 1 0.0 7.196 24.272 11.637 0 0 0
980 712 1 0.0 10.052 24.272 11.637 0 0 0
570 713 1 0.0 15.763 24.272 8.780 0 0 0
554 714 1 0.0 18.619 21.415 8.780 0 0 0
571 715 1 0.0 17.191 22.840 7.353 0 0 0
589 716 1 0.0 17.191 25.697 7.353 0 0 0
983 717 1 0.0 14.336 22.840 10.200 0 0 0
572 718 1 0.0 18.619 24.272 8.780 0 0 0
965 719 1 0.0 14.336 19.990 10.200 0 0 0
552 720 1 0.0 15.763 21.415 8.780 0 0 0
551 721 1 0.0 14.336 19.990 7.353 0 0 0
587 722 1 0.0 14.336 25.697 7.353 0 0 0
1001 723 1 0.0 14.336 25.697 10.200 0 0 0
1003 724 1 0.0 17.191 25.697 10.200 0 0 0
985 725 1 0.0 17.191 22.840 10.200 0 0 0
568 726 1 0.0 12.908 24.272 8.780 0 0 0
569 727 1 0.0 14.336 22.840 7.353 0 0 0
550 728 1 0.0 12.908 21.415 8.780 0 0 0
967 729 1 0.0 17.191 19.990 10.200 0 0 0
553 730 1 0.0 17.191 19.990 7.353 0 0 0
964 731 1 0.0 12.908 21.415 11.637 0 0 0
966 732 1 0.0 15.763 21.415 11.637 0 0 0
968 733 1 0.0 18.619 21.415 11.637 0 0 0
982 734 1 0.0 12.908 24.272 11.637 0 0 0
984 735 1 0.0 15.763 24.272 11.637 0 0 0
986 736 1 0.0 18.619 24.272 11.637 0 0 0
573 737 1 0.0 20.044 22.840 7.353 0 0 0
574 738 1 0.0 21.472 24.272 8.780 0 0 0
575 739 1 0.0 22.900 22.840 7.353 0 0 0
576 740 1 0.0 24.328 24.272 8.780 0 0 0
591 741 1 0.0 20.044 25.697 7.353 0 0 0
593 742 1 0.0 22.900 25.697 7.353 0 0 0
969 743 1 0.0 20.044 19.990 10.200 0 0 0
971 744 1 0.0 22.900 19.990 10.200 0 0 0
987 745 1 0.0 20.044 22.840 10.200 0 0 0
989 746 1 0.0 22.900 22.840 10.200 0 0 0
1005 747 1 0.0 20.044 25.697 10.200 0 0 0
1007 748 1 0.0 22.900 25.697 10.200 0 0 0
555 749 1 0.0 20.044 19.990 7.353 0 0 0
556 750 1 0.0 21.472 21.415 8.780 0 0 0
557 751 1 0.0 22.900 19.990 7.353 0 0 0
558 752 1 0.0 24.328 21.415 8.780 0 0 0
970 753 1 0.0 21.472 21.415 11.637 0 0 0
972 754 1 0.0 24.328 21.415 11.637 0 0 0
988 755 1 0.0 21.472 24.272 11.637 0 0 0
990 756 1 0.0 24.328 24.272 11.637 0 0 0
613 757 1 0.0 0.059 31.410 7.353 0 0 0
615 758 1 0.0 2.912 31.410 7.353 0 0 0
617 759 1 0.0 5.768 31.410 7.353 0 0 0