# LAMMPS data file written by reax_tools

12902 atoms
18945 bonds
7 atom types
1 bond types

0 25.774014 xlo xhi
0 65.670044 ylo yhi
0 85 zlo zhi

Atoms # full

1 1 1 0.0 0.059 2.252 4.505 0 0 0
2 2 1 0.0 1.487 3.678 5.924 0 0 0
3 3 1 0.0 2.912 2.252 4.505 0 0 0
4 4 1 0.0 4.340 3.678 5.924 0 0 0
5 5 1 0.0 5.768 2.252 4.505 0 0 0
19 6 1 0.0 0.059 5.109 4.505 0 0 0
20 7 1 0.0 1.487 6.534 5.924 0 0 0
21 8 1 0.0 2.912 5.109 4.505 0 0 0
22 9 1 0.0 4.340 6.534 5.924 0 0 0
23 10 1 0.0 5.768 5.109 4.505 0 0 0
398 11 1 0.0 1.487 0.827 5.924 0 0 0
400 12 1 0.0 4.340 0.827 5.924 0 0 0
6 13 1 0.0 7.196 3.678 5.924 0 0 0
7 14 1 0.0 8.624 2.252 4.505 0 0 0
8 15 1 0.0 10.052 3.678 5.924 0 0 0
9 16 1 0.0 11.480 2.252 4.505 0 0 0
24 17 1 0.0 7.196 6.534 5.924 0 0 0
25 18 1 0.0 8.624 5.109 4.505 0 0 0
26 19 1 0.0 10.052 6.534 5.924 0 0 0
27 20 1 0.0 11.480 5.109 4.505 0 0 0
402 21 1 0.0 7.196 0.827 5.924 0 0 0
404 22 1 0.0 10.052 0.827 5.924 0 0 0
10 23 1 0.0 12.908 3.678 5.924 0 0 0
11 24 1 0.0 14.336 2.252 4.505 0 0 0
12 25 1 0.0 15.763 3.678 5.924 0 0 0
13 26 1 0.0 17.191 2.252 4.505 0 0 0
14 27 1 0.0 18.619 3.678 5.924 0 0 0
28 28 1 0.0 12.908 6.534 5.924 0 0 0
29 29 1 0.0 14.336 5.109 4.505 0 0 0
30 30 1 0.0 15.763 6.534 5.924 0 0 0
31 31 1 0.0 17.191 5.109 4.505 0 0 0
32 32 1 0.0 18.619 6.534 5.924 0 0 0
406 33 1 0.0 12.908 0.827 5.924 0 0 0
408 34 1 0.0 15.763 0.827 5.924 0 0 0
410 35 1 0.0 18.619 0.827 5.924 0 0 0
33 36 1 0.0 20.044 5.109 4.505 0 0 0
34 37 1 0.0 21.472 6.534 5.924 0 0 0
35 38 1 0.0 22.900 5.109 4.505 0 0 0
36 39 1 0.0 24.328 6.534 5.924 0 0 0
15 40 1 0.0 20.044 2.252 4.505 0 0 0
16 41 1 0.0 21.472 3.678 5.924 0 0 0
17 42 1 0.0 22.900 2.252 4.505 0 0 0
18 43 1 0.0 24.328 3.678 5.924 0 0 0
412 44 1 0.0 21.472 0.827 5.924 0 0 0
414 45 1 0.0 24.328 0.827 5.924 0 0 0
37 46 1 0.0 0.059 7.966 4.505 0 0 0
39 47 1 0.0 2.912 7.966 4.505 0 0 0
41 48 1 0.0 5.768 7.966 4.505 0 0 0
59 49 1 0.0 5.768 10.816 4.505 0 0 0
38 50 1 0.0 1.487 9.391 5.924 0 0 0
57 51 1 0.0 2.912 10.816 4.505 0 0 0
40 52 1 0.0 4.340 9.391 5.924 0 0 0
58 53 1 0.0 4.340 12.247 5.924 0 0 0
55 54 1 0.0 0.059 10.816 4.505 0 0 0
56 55 1 0.0 1.487 12.247 5.924 0 0 0
43 56 1 0.0 8.624 7.966 4.505 0 0 0
45 57 1 0.0 11.480 7.966 4.505 0 0 0
42 58 1 0.0 7.196 9.391 5.924 0 0 0
44 59 1 0.0 10.052 9.391 5.924 0 0 0
60 60 1 0.0 7.196 12.247 5.924 0 0 0
61 61 1 0.0 8.624 10.816 4.505 0 0 0
62 62 1 0.0 10.052 12.247 5.924 0 0 0
63 63 1 0.0 11.480 10.816 4.505 0 0 0
47 64 1 0.0 14.336 7.966 4.505 0 0 0
49 65 1 0.0 17.191 7.966 4.505 0 0 0
46 66 1 0.0 12.908 9.391 5.924 0 0 0
48 67 1 0.0 15.763 9.391 5.924 0 0 0
50 68 1 0.0 18.619 9.391 5.924 0 0 0
64 69 1 0.0 12.908 12.247 5.924 0 0 0
65 70 1 0.0 14.336 10.816 4.505 0 0 0
66 71 1 0.0 15.763 12.247 5.924 0 0 0
67 72 1 0.0 17.191 10.816 4.505 0 0 0
68 73 1 0.0 18.619 12.247 5.924 0 0 0
51 74 1 0.0 20.044 7.966 4.505 0 0 0
53 75 1 0.0 22.900 7.966 4.505 0 0 0
52 76 1 0.0 21.472 9.391 5.924 0 0 0
54 77 1 0.0 24.328 9.391 5.924 0 0 0
69 78 1 0.0 20.044 10.816 4.505 0 0 0
70 79 1 0.0 21.472 12.247 5.924 0 0 0
71 80 1 0.0 22.900 10.816 4.505 0 0 0
72 81 1 0.0 24.328 12.247 5.924 0 0 0
75 82 1 0.0 2.912 13.673 4.505 0 0 0
73 83 1 0.0 0.059 13.673 4.505 0 0 0
77 84 1 0.0 5.768 13.673 4.505 0 0 0
76 85 1 0.0 4.340 15.104 5.924 0 0 0
74 86 1 0.0 1.487 15.104 5.924 0 0 0
91 87 1 0.0 0.059 16.529 4.505 0 0 0
92 88 1 0.0 1.487 17.954 5.924 0 0 0
93 89 1 0.0 2.912 16.529 4.505 0 0 0
94 90 1 0.0 4.340 17.954 5.924 0 0 0
95 91 1 0.0 5.768 16.529 4.505 0 0 0
109 92 1 0.0 0.059 19.386 4.505 0 0 0
111 93 1 0.0 2.912 19.386 4.505 0 0 0
113 94 1 0.0 5.768 19.386 4.505 0 0 0
79 95 1 0.0 8.624 13.673 4.505 0 0 0
81 96 1 0.0 11.480 13.673 4.505 0 0 0
80 97 1 0.0 10.052 15.104 5.924 0 0 0
78 98 1 0.0 7.196 15.104 5.924 0 0 0
96 99 1 0.0 7.196 17.954 5.924 0 0 0
97 100 1 0.0 8.624 16.529 4.505 0 0 0
98 101 1 0.0 10.052 17.954 5.924 0 0 0
99 102 1 0.0 11.480 16.529 4.505 0 0 0
115 103 1 0.0 8.624 19.386 4.505 0 0 0
117 104 1 0.0 11.480 19.386 4.505 0 0 0
83 105 1 0.0 14.336 13.673 4.505 0 0 0
85 106 1 0.0 17.191 13.673 4.505 0 0 0
82 107 1 0.0 12.908 15.104 5.924 0 0 0
84 108 1 0.0 15.763 15.104 5.924 0 0 0
86 109 1 0.0 18.619 15.104 5.924 0 0 0
100 110 1 0.0 12.908 17.954 5.924 0 0 0
101 111 1 0.0 14.336 16.529 4.505 0 0 0
102 112 1 0.0 15.763 17.954 5.924 0 0 0
103 113 1 0.0 17.191 16.529 4.505 0 0 0
104 114 1 0.0 18.619 17.954 5.924 0 0 0
119 115 1 0.0 14.336 19.386 4.505 0 0 0
121 116 1 0.0 17.191 19.386 4.505 0 0 0
87 117 1 0.0 20.044 13.673 4.505 0 0 0
89 118 1 0.0 22.900 13.673 4.505 0 0 0
88 119 1 0.0 21.472 15.104 5.924 0 0 0
90 120 1 0.0 24.328 15.104 5.924 0 0 0
105 121 1 0.0 20.044 16.529 4.505 0 0 0
106 122 1 0.0 21.472 17.954 5.924 0 0 0
107 123 1 0.0 22.900 16.529 4.505 0 0 0
108 124 1 0.0 24.328 17.954 5.924 0 0 0
123 125 1 0.0 20.044 19.386 4.505 0 0 0
125 126 1 0.0 22.900 19.386 4.505 0 0 0
110 127 1 0.0 1.487 20.811 5.924 0 0 0
112 128 1 0.0 4.340 20.811 5.924 0 0 0
129 129 1 0.0 2.912 22.242 4.505 0 0 0
130 130 1 0.0 4.340 23.667 5.924 0 0 0
131 131 1 0.0 5.768 22.242 4.505 0 0 0
145 132 1 0.0 0.059 25.093 4.505 0 0 0
147 133 1 0.0 2.912 25.093 4.505 0 0 0
149 134 1 0.0 5.768 25.093 4.505 0 0 0
127 135 1 0.0 0.059 22.242 4.505 0 0 0
128 136 1 0.0 1.487 23.667 5.924 0 0 0
114 137 1 0.0 7.196 20.811 5.924 0 0 0
116 138 1 0.0 10.052 20.811 5.924 0 0 0
132 139 1 0.0 7.196 23.667 5.924 0 0 0
133 140 1 0.0 8.624 22.242 4.505 0 0 0
134 141 1 0.0 10.052 23.667 5.924 0 0 0
135 142 1 0.0 11.480 22.242 4.505 0 0 0
151 143 1 0.0 8.624 25.093 4.505 0 0 0
153 144 1 0.0 11.480 25.093 4.505 0 0 0
118 145 1 0.0 12.908 20.811 5.924 0 0 0
120 146 1 0.0 15.763 20.811 5.924 0 0 0
122 147 1 0.0 18.619 20.811 5.924 0 0 0
139 148 1 0.0 17.191 22.242 4.505 0 0 0
138 149 1 0.0 15.763 23.667 5.924 0 0 0
155 150 1 0.0 14.336 25.093 4.505 0 0 0
157 151 1 0.0 17.191 25.093 4.505 0 0 0
137 152 1 0.0 14.336 22.242 4.505 0 0 0
140 153 1 0.0 18.619 23.667 5.924 0 0 0
136 154 1 0.0 12.908 23.667 5.924 0 0 0
124 155 1 0.0 21.472 20.811 5.924 0 0 0
126 156 1 0.0 24.328 20.811 5.924 0 0 0
141 157 1 0.0 20.044 22.242 4.505 0 0 0
142 158 1 0.0 21.472 23.667 5.924 0 0 0
143 159 1 0.0 22.900 22.242 4.505 0 0 0
144 160 1 0.0 24.328 23.667 5.924 0 0 0
159 161 1 0.0 20.044 25.093 4.505 0 0 0
161 162 1 0.0 22.900 25.093 4.505 0 0 0
146 163 1 0.0 1.487 26.524 5.924 0 0 0
148 164 1 0.0 4.340 26.524 5.924 0 0 0
163 165 1 0.0 0.059 27.949 4.505 0 0 0
165 166 1 0.0 2.912 27.949 4.505 0 0 0
167 167 1 0.0 5.768 27.949 4.505 0 0 0
164 168 1 0.0 1.487 29.381 5.924 0 0 0
166 169 1 0.0 4.340 29.381 5.924 0 0 0
181 170 1 0.0 0.059 30.806 4.505 0 0 0
182 171 1 0.0 1.487 32.231 5.924 0 0 0
183 172 1 0.0 2.912 30.806 4.505 0 0 0
184 173 1 0.0 4.340 32.231 5.924 0 0 0
185 174 1 0.0 5.768 30.806 4.505 0 0 0
150 175 1 0.0 7.196 26.524 5.924 0 0 0
152 176 1 0.0 10.052 26.524 5.924 0 0 0
169 177 1 0.0 8.624 27.949 4.505 0 0 0
171 178 1 0.0 11.480 27.949 4.505 0 0 0
168 179 1 0.0 7.196 29.381 5.924 0 0 0
170 180 1 0.0 10.052 29.381 5.924 0 0 0
186 181 1 0.0 7.196 32.231 5.924 0 0 0
187 182 1 0.0 8.624 30.806 4.505 0 0 0
188 183 1 0.0 10.052 32.231 5.924 0 0 0
189 184 1 0.0 11.480 30.806 4.505 0 0 0
156 185 1 0.0 15.763 26.524 5.924 0 0 0
158 186 1 0.0 18.619 26.524 5.924 0 0 0
154 187 1 0.0 12.908 26.524 5.924 0 0 0
175 188 1 0.0 17.191 27.949 4.505 0 0 0
173 189 1 0.0 14.336 27.949 4.505 0 0 0
172 190 1 0.0 12.908 29.381 5.924 0 0 0
174 191 1 0.0 15.763 29.381 5.924 0 0 0
176 192 1 0.0 18.619 29.381 5.924 0 0 0
190 193 1 0.0 12.908 32.231 5.924 0 0 0
191 194 1 0.0 14.336 30.806 4.505 0 0 0
192 195 1 0.0 15.763 32.231 5.924 0 0 0
193 196 1 0.0 17.191 30.806 4.505 0 0 0
194 197 1 0.0 18.619 32.231 5.924 0 0 0
160 198 1 0.0 21.472 26.524 5.924 0 0 0
162 199 1 0.0 24.328 26.524 5.924 0 0 0
177 200 1 0.0 20.044 27.949 4.505 0 0 0
179 201 1 0.0 22.900 27.949 4.505 0 0 0
198 202 1 0.0 24.328 32.231 5.924 0 0 0
178 203 1 0.0 21.472 29.381 5.924 0 0 0
180 204 1 0.0 24.328 29.381 5.924 0 0 0
195 205 1 0.0 20.044 30.806 4.505 0 0 0
196 206 1 0.0 21.472 32.231 5.924 0 0 0
197 207 1 0.0 22.900 30.806 4.505 0 0 0
199 208 1 0.0 0.059 33.662 4.505 0 0 0
201 209 1 0.0 2.912 33.662 4.505 0 0 0
203 210 1 0.0 5.768 33.662 4.505 0 0 0
200 211 1 0.0 1.487 35.088 5.924 0 0 0
202 212 1 0.0 4.340 35.088 5.924 0 0 0
217 213 1 0.0 0.059 36.519 4.505 0 0 0
218 214 1 0.0 1.487 37.944 5.924 0 0 0
219 215 1 0.0 2.912 36.519 4.505 0 0 0
220 216 1 0.0 4.340 37.944 5.924 0 0 0
221 217 1 0.0 5.768 36.519 4.505 0 0 0
235 218 1 0.0 0.059 39.369 4.505 0 0 0
237 219 1 0.0 2.912 39.369 4.505 0 0 0
239 220 1 0.0 5.768 39.369 4.505 0 0 0
205 221 1 0.0 8.624 33.662 4.505 0 0 0
207 222 1 0.0 11.480 33.662 4.505 0 0 0
204 223 1 0.0 7.196 35.088 5.924 0 0 0
206 224 1 0.0 10.052 35.088 5.924 0 0 0
222 225 1 0.0 7.196 37.944 5.924 0 0 0
223 226 1 0.0 8.624 36.519 4.505 0 0 0
224 227 1 0.0 10.052 37.944 5.924 0 0 0
225 228 1 0.0 11.480 36.519 4.505 0 0 0
241 229 1 0.0 8.624 39.369 4.505 0 0 0
243 230 1 0.0 11.480 39.369 4.505 0 0 0
209 231 1 0.0 14.336 33.662 4.505 0 0 0
211 232 1 0.0 17.191 33.662 4.505 0 0 0
208 233 1 0.0 12.908 35.088 5.924 0 0 0
210 234 1 0.0 15.763 35.088 5.924 0 0 0
212 235 1 0.0 18.619 35.088 5.924 0 0 0
226 236 1 0.0 12.908 37.944 5.924 0 0 0
227 237 1 0.0 14.336 36.519 4.505 0 0 0
228 238 1 0.0 15.763 37.944 5.924 0 0 0
229 239 1 0.0 17.191 36.519 4.505 0 0 0
230 240 1 0.0 18.619 37.944 5.924 0 0 0
245 241 1 0.0 14.336 39.369 4.505 0 0 0
247 242 1 0.0 17.191 39.369 4.505 0 0 0
213 243 1 0.0 20.044 33.662 4.505 0 0 0
215 244 1 0.0 22.900 33.662 4.505 0 0 0
251 245 1 0.0 22.900 39.369 4.505 0 0 0
214 246 1 0.0 21.472 35.088 5.924 0 0 0
216 247 1 0.0 24.328 35.088 5.924 0 0 0
231 248 1 0.0 20.044 36.519 4.505 0 0 0
232 249 1 0.0 21.472 37.944 5.924 0 0 0
233 250 1 0.0 22.900 36.519 4.505 0 0 0
234 251 1 0.0 24.328 37.944 5.924 0 0 0
249 252 1 0.0 20.044 39.369 4.505 0 0 0
236 253 1 0.0 1.487 40.801 5.924 0 0 0
238 254 1 0.0 4.340 40.801 5.924 0 0 0
254 255 1 0.0 1.487 43.657 5.924 0 0 0
253 256 1 0.0 0.059 42.226 4.505 0 0 0
256 257 1 0.0 4.340 43.657 5.924 0 0 0
257 258 1 0.0 5.768 42.226 4.505 0 0 0
271 259 1 0.0 0.059 45.082 4.505 0 0 0
255 260 1 0.0 2.912 42.226 4.505 0 0 0
273 261 1 0.0 2.912 45.082 4.505 0 0 0
275 262 1 0.0 5.768 45.082 4.505 0 0 0
240 263 1 0.0 7.196 40.801 5.924 0 0 0
242 264 1 0.0 10.052 40.801 5.924 0 0 0
258 265 1 0.0 7.196 43.657 5.924 0 0 0
259 266 1 0.0 8.624 42.226 4.505 0 0 0
260 267 1 0.0 10.052 43.657 5.924 0 0 0
261 268 1 0.0 11.480 42.226 4.505 0 0 0
277 269 1 0.0 8.624 45.082 4.505 0 0 0
279 270 1 0.0 11.480 45.082 4.505 0 0 0
244 271 1 0.0 12.908 40.801 5.924 0 0 0
246 272 1 0.0 15.763 40.801 5.924 0 0 0
248 273 1 0.0 18.619 40.801 5.924 0 0 0
262 274 1 0.0 12.908 43.657 5.924 0 0 0
263 275 1 0.0 14.336 42.226 4.505 0 0 0
264 276 1 0.0 15.763 43.657 5.924 0 0 0
265 277 1 0.0 17.191 42.226 4.505 0 0 0
266 278 1 0.0 18.619 43.657 5.924 0 0 0
281 279 1 0.0 14.336 45.082 4.505 0 0 0
283 280 1 0.0 17.191 45.082 4.505 0 0 0
252 281 1 0.0 24.328 40.801 5.924 0 0 0
250 282 1 0.0 21.472 40.801 5.924 0 0 0
267 283 1 0.0 20.044 42.226 4.505 0 0 0
268 284 1 0.0 21.472 43.657 5.924 0 0 0
269 285 1 0.0 22.900 42.226 4.505 0 0 0
270 286 1 0.0 24.328 43.657 5.924 0 0 0
285 287 1 0.0 20.044 45.082 4.505 0 0 0
287 288 1 0.0 22.900 45.082 4.505 0 0 0
274 289 1 0.0 4.340 46.508 5.924 0 0 0
272 290 1 0.0 1.487 46.508 5.924 0 0 0
289 291 1 0.0 0.059 47.939 4.505 0 0 0
293 292 1 0.0 5.768 47.939 4.505 0 0 0
291 293 1 0.0 2.912 47.939 4.505 0 0 0
290 294 1 0.0 1.487 49.364 5.924 0 0 0
292 295 1 0.0 4.340 49.364 5.924 0 0 0
307 296 1 0.0 0.059 50.796 4.505 0 0 0
308 297 1 0.0 1.487 52.221 5.924 0 0 0
309 298 1 0.0 2.912 50.796 4.505 0 0 0
310 299 1 0.0 4.340 52.221 5.924 0 0 0
311 300 1 0.0 5.768 50.796 4.505 0 0 0
276 301 1 0.0 7.196 46.508 5.924 0 0 0
278 302 1 0.0 10.052 46.508 5.924 0 0 0
295 303 1 0.0 8.624 47.939 4.505 0 0 0
297 304 1 0.0 11.480 47.939 4.505 0 0 0
294 305 1 0.0 7.196 49.364 5.924 0 0 0
296 306 1 0.0 10.052 49.364 5.924 0 0 0
312 307 1 0.0 7.196 52.221 5.924 0 0 0
313 308 1 0.0 8.624 50.796 4.505 0 0 0
314 309 1 0.0 10.052 52.221 5.924 0 0 0
315 310 1 0.0 11.480 50.796 4.505 0 0 0
280 311 1 0.0 12.908 46.508 5.924 0 0 0
282 312 1 0.0 15.763 46.508 5.924 0 0 0
284 313 1 0.0 18.619 46.508 5.924 0 0 0
299 314 1 0.0 14.336 47.939 4.505 0 0 0
301 315 1 0.0 17.191 47.939 4.505 0 0 0
298 316 1 0.0 12.908 49.364 5.924 0 0 0
300 317 1 0.0 15.763 49.364 5.924 0 0 0
302 318 1 0.0 18.619 49.364 5.924 0 0 0
316 319 1 0.0 12.908 52.221 5.924 0 0 0
317 320 1 0.0 14.336 50.796 4.505 0 0 0
318 321 1 0.0 15.763 52.221 5.924 0 0 0
319 322 1 0.0 17.191 50.796 4.505 0 0 0
320 323 1 0.0 18.619 52.221 5.924 0 0 0
286 324 1 0.0 21.472 46.508 5.924 0 0 0
288 325 1 0.0 24.328 46.508 5.924 0 0 0
303 326 1 0.0 20.044 47.939 4.505 0 0 0
305 327 1 0.0 22.900 47.939 4.505 0 0 0
304 328 1 0.0 21.472 49.364 5.924 0 0 0
306 329 1 0.0 24.328 49.364 5.924 0 0 0
321 330 1 0.0 20.044 50.796 4.505 0 0 0
322 331 1 0.0 21.472 52.221 5.924 0 0 0
323 332 1 0.0 22.900 50.796 4.505 0 0 0
324 333 1 0.0 24.328 52.221 5.924 0 0 0
325 334 1 0.0 0.059 53.646 4.505 0 0 0
327 335 1 0.0 2.912 53.646 4.505 0 0 0
329 336 1 0.0 5.768 53.646 4.505 0 0 0
326 337 1 0.0 1.487 55.077 5.924 0 0 0
328 338 1 0.0 4.340 55.077 5.924 0 0 0
343 339 1 0.0 0.059 56.503 4.505 0 0 0
344 340 1 0.0 1.487 57.934 5.924 0 0 0
345 341 1 0.0 2.912 56.503 4.505 0 0 0
346 342 1 0.0 4.340 57.934 5.924 0 0 0
347 343 1 0.0 5.768 56.503 4.505 0 0 0
331 344 1 0.0 8.624 53.646 4.505 0 0 0
333 345 1 0.0 11.480 53.646 4.505 0 0 0
330 346 1 0.0 7.196 55.077 5.924 0 0 0
332 347 1 0.0 10.052 55.077 5.924 0 0 0
348 348 1 0.0 7.196 57.934 5.924 0 0 0
349 349 1 0.0 8.624 56.503 4.505 0 0 0
350 350 1 0.0 10.052 57.934 5.924 0 0 0
351 351 1 0.0 11.480 56.503 4.505 0 0 0
335 352 1 0.0 14.336 53.646 4.505 0 0 0
337 353 1 0.0 17.191 53.646 4.505 0 0 0
355 354 1 0.0 17.191 56.503 4.505 0 0 0
356 355 1 0.0 18.619 57.934 5.924 0 0 0
334 356 1 0.0 12.908 55.077 5.924 0 0 0
336 357 1 0.0 15.763 55.077 5.924 0 0 0
338 358 1 0.0 18.619 55.077 5.924 0 0 0
353 359 1 0.0 14.336 56.503 4.505 0 0 0
352 360 1 0.0 12.908 57.934 5.924 0 0 0
354 361 1 0.0 15.763 57.934 5.924 0 0 0
339 362 1 0.0 20.044 53.646 4.505 0 0 0
341 363 1 0.0 22.900 53.646 4.505 0 0 0
357 364 1 0.0 20.044 56.503 4.505 0 0 0
358 365 1 0.0 21.472 57.934 5.924 0 0 0
359 366 1 0.0 22.900 56.503 4.505 0 0 0
360 367 1 0.0 24.328 57.934 5.924 0 0 0
340 368 1 0.0 21.472 55.077 5.924 0 0 0
342 369 1 0.0 24.328 55.077 5.924 0 0 0
361 370 1 0.0 0.059 59.359 4.505 0 0 0
363 371 1 0.0 2.912 59.359 4.505 0 0 0
365 372 1 0.0 5.768 59.359 4.505 0 0 0
362 373 1 0.0 1.487 60.784 5.924 0 0 0
364 374 1 0.0 4.340 60.784 5.924 0 0 0
397 375 1 0.0 0.059 65.072 4.505 0 0 0
399 376 1 0.0 2.912 65.072 4.505 0 0 0
401 377 1 0.0 5.768 65.072 4.505 0 0 0
379 378 1 0.0 0.059 62.216 4.505 0 0 0
380 379 1 0.0 1.487 63.641 5.924 0 0 0
381 380 1 0.0 2.912 62.216 4.505 0 0 0
382 381 1 0.0 4.340 63.641 5.924 0 0 0
383 382 1 0.0 5.768 62.216 4.505 0 0 0
367 383 1 0.0 8.624 59.359 4.505 0 0 0
369 384 1 0.0 11.480 59.359 4.505 0 0 0
366 385 1 0.0 7.196 60.784 5.924 0 0 0
368 386 1 0.0 10.052 60.784 5.924 0 0 0
385 387 1 0.0 8.624 62.216 4.505 0 0 0
386 388 1 0.0 10.052 63.641 5.924 0 0 0
387 389 1 0.0 11.480 62.216 4.505 0 0 0
403 390 1 0.0 8.624 65.072 4.505 0 0 0
405 391 1 0.0 11.480 65.072 4.505 0 0 0
384 392 1 0.0 7.196 63.641 5.924 0 0 0
371 393 1 0.0 14.336 59.359 4.505 0 0 0
373 394 1 0.0 17.191 59.359 4.505 0 0 0
370 395 1 0.0 12.908 60.784 5.924 0 0 0
372 396 1 0.0 15.763 60.784 5.924 0 0 0
374 397 1 0.0 18.619 60.784 5.924 0 0 0
388 398 1 0.0 12.908 63.641 5.924 0 0 0
389 399 1 0.0 14.336 62.216 4.505 0 0 0
390 400 1 0.0 15.763 63.641 5.924 0 0 0
391 401 1 0.0 17.191 62.216 4.505 0 0 0
392 402 1 0.0 18.619 63.641 5.924 0 0 0
407 403 1 0.0 14.336 65.072 4.505 0 0 0
409 404 1 0.0 17.191 65.072 4.505 0 0 0
375 405 1 0.0 20.044 59.359 4.505 0 0 0
377 406 1 0.0 22.900 59.359 4.505 0 0 0
376 407 1 0.0 21.472 60.784 5.924 0 0 0
378 408 1 0.0 24.328 60.784 5.924 0 0 0
393 409 1 0.0 20.044 62.216 4.505 0 0 0
394 410 1 0.0 21.472 63.641 5.924 0 0 0
395 411 1 0.0 22.900 62.216 4.505 0 0 0
396 412 1 0.0 24.328 63.641 5.924 0 0 0
411 413 1 0.0 20.044 65.072 4.505 0 0 0
413 414 1 0.0 22.900 65.072 4.505 0 0 0
851 415 1 0.0 5.768 5.109 10.200 0 0 0
415 416 1 0.0 0.059 2.252 7.353 0 0 0
416 417 1 0.0 1.487 3.678 8.780 0 0 0
417 418 1 0.0 2.912 2.252 7.353 0 0 0
418 419 1 0.0 4.340 3.678 8.780 0 0 0
829 420 1 0.0 0.059 2.252 10.200 0 0 0
419 421 1 0.0 5.768 2.252 7.353 0 0 0
831 422 1 0.0 2.912 2.252 10.200 0 0 0
433 423 1 0.0 0.059 5.109 7.353 0 0 0
434 424 1 0.0 1.487 6.534 8.780 0 0 0
435 425 1 0.0 2.912 5.109 7.353 0 0 0
436 426 1 0.0 4.340 6.534 8.780 0 0 0
437 427 1 0.0 5.768 5.109 7.353 0 0 0
833 428 1 0.0 5.768 2.252 10.200 0 0 0
847 429 1 0.0 0.059 5.109 10.200 0 0 0
849 430 1 0.0 2.912 5.109 10.200 0 0 0
830 431 1 0.0 1.487 3.678 11.637 0 0 0
832 432 1 0.0 4.340 3.678 11.637 0 0 0
848 433 1 0.0 1.487 6.534 11.637 0 0 0
850 434 1 0.0 4.340 6.534 11.637 0 0 0
812 435 1 0.0 1.487 0.827 8.780 0 0 0
814 436 1 0.0 4.340 0.827 8.780 0 0 0
1226 437 1 0.0 1.487 0.827 11.637 0 0 0
1228 438 1 0.0 4.340 0.827 11.637 0 0 0
420 439 1 0.0 7.196 3.678 8.780 0 0 0
421 440 1 0.0 8.624 2.252 7.353 0 0 0
422 441 1 0.0 10.052 3.678 8.780 0 0 0
423 442 1 0.0 11.480 2.252 7.353 0 0 0
438 443 1 0.0 7.196 6.534 8.780 0 0 0
439 444 1 0.0 8.624 5.109 7.353 0 0 0
440 445 1 0.0 10.052 6.534 8.780 0 0 0
441 446 1 0.0 11.480 5.109 7.353 0 0 0
835 447 1 0.0 8.624 2.252 10.200 0 0 0
837 448 1 0.0 11.480 2.252 10.200 0 0 0
853 449 1 0.0 8.624 5.109 10.200 0 0 0
855 450 1 0.0 11.480 5.109 10.200 0 0 0
834 451 1 0.0 7.196 3.678 11.637 0 0 0
836 452 1 0.0 10.052 3.678 11.637 0 0 0
852 453 1 0.0 7.196 6.534 11.637 0 0 0
854 454 1 0.0 10.052 6.534 11.637 0 0 0
816 455 1 0.0 7.196 0.827 8.780 0 0 0
818 456 1 0.0 10.052 0.827 8.780 0 0 0
1230 457 1 0.0 7.196 0.827 11.637 0 0 0
1232 458 1 0.0 10.052 0.827 11.637 0 0 0
424 459 1 0.0 12.908 3.678 8.780 0 0 0
425 460 1 0.0 14.336 2.252 7.353 0 0 0
426 461 1 0.0 15.763 3.678 8.780 0 0 0
427 462 1 0.0 17.191 2.252 7.353 0 0 0
428 463 1 0.0 18.619 3.678 8.780 0 0 0
442 464 1 0.0 12.908 6.534 8.780 0 0 0
443 465 1 0.0 14.336 5.109 7.353 0 0 0
444 466 1 0.0 15.763 6.534 8.780 0 0 0
445 467 1 0.0 17.191 5.109 7.353 0 0 0
446 468 1 0.0 18.619 6.534 8.780 0 0 0
839 469 1 0.0 14.336 2.252 10.200 0 0 0
841 470 1 0.0 17.191 2.252 10.200 0 0 0
857 471 1 0.0 14.336 5.109 10.200 0 0 0
859 472 1 0.0 17.191 5.109 10.200 0 0 0
838 473 1 0.0 12.908 3.678 11.637 0 0 0
840 474 1 0.0 15.763 3.678 11.637 0 0 0
842 475 1 0.0 18.619 3.678 11.637 0 0 0
856 476 1 0.0 12.908 6.534 11.637 0 0 0
858 477 1 0.0 15.763 6.534 11.637 0 0 0
860 478 1 0.0 18.619 6.534 11.637 0 0 0
820 479 1 0.0 12.908 0.827 8.780 0 0 0
822 480 1 0.0 15.763 0.827 8.780 0 0 0
824 481 1 0.0 18.619 0.827 8.780 0 0 0
1234 482 1 0.0 12.908 0.827 11.637 0 0 0
1236 483 1 0.0 15.763 0.827 11.637 0 0 0
1238 484 1 0.0 18.619 0.827 11.637 0 0 0
429 485 1 0.0 20.044 2.252 7.353 0 0 0
430 486 1 0.0 21.472 3.678 8.780 0 0 0
431 487 1 0.0 22.900 2.252 7.353 0 0 0
432 488 1 0.0 24.328 3.678 8.780 0 0 0
447 489 1 0.0 20.044 5.109 7.353 0 0 0
448 490 1 0.0 21.472 6.534 8.780 0 0 0
843 491 1 0.0 20.044 2.252 10.200 0 0 0
845 492 1 0.0 22.900 2.252 10.200 0 0 0
861 493 1 0.0 20.044 5.109 10.200 0 0 0
863 494 1 0.0 22.900 5.109 10.200 0 0 0
449 495 1 0.0 22.900 5.109 7.353 0 0 0
450 496 1 0.0 24.328 6.534 8.780 0 0 0
844 497 1 0.0 21.472 3.678 11.637 0 0 0
846 498 1 0.0 24.328 3.678 11.637 0 0 0
862 499 1 0.0 21.472 6.534 11.637 0 0 0
864 500 1 0.0 24.328 6.534 11.637 0 0 0
826 501 1 0.0 21.472 0.827 8.780 0 0 0
828 502 1 0.0 24.328 0.827 8.780 0 0 0
1240 503 1 0.0 21.472 0.827 11.637 0 0 0
1242 504 1 0.0 24.328 0.827 11.637 0 0 0
865 505 1 0.0 0.059 7.966 10.200 0 0 0
867 506 1 0.0 2.912 7.966 10.200 0 0 0
869 507 1 0.0 5.768 7.966 10.200 0 0 0
451 508 1 0.0 0.059 7.966 7.353 0 0 0
453 509 1 0.0 2.912 7.966 7.353 0 0 0
455 510 1 0.0 5.768 7.966 7.353 0 0 0
470 511 1 0.0 1.487 12.247 8.780 0 0 0
887 512 1 0.0 5.768 10.816 10.200 0 0 0
454 513 1 0.0 4.340 9.391 8.780 0 0 0
472 514 1 0.0 4.340 12.247 8.780 0 0 0
452 515 1 0.0 1.487 9.391 8.780 0 0 0
473 516 1 0.0 5.768 10.816 7.353 0 0 0
885 517 1 0.0 2.912 10.816 10.200 0 0 0
469 518 1 0.0 0.059 10.816 7.353 0 0 0
883 519 1 0.0 0.059 10.816 10.200 0 0 0
471 520 1 0.0 2.912 10.816 7.353 0 0 0
866 521 1 0.0 1.487 9.391 11.637 0 0 0
868 522 1 0.0 4.340 9.391 11.637 0 0 0
884 523 1 0.0 1.487 12.247 11.637 0 0 0
886 524 1 0.0 4.340 12.247 11.637 0 0 0
871 525 1 0.0 8.624 7.966 10.200 0 0 0
873 526 1 0.0 11.480 7.966 10.200 0 0 0
457 527 1 0.0 8.624 7.966 7.353 0 0 0
459 528 1 0.0 11.480 7.966 7.353 0 0 0
889 529 1 0.0 8.624 10.816 10.200 0 0 0
891 530 1 0.0 11.480 10.816 10.200 0 0 0
456 531 1 0.0 7.196 9.391 8.780 0 0 0
458 532 1 0.0 10.052 9.391 8.780 0 0 0
474 533 1 0.0 7.196 12.247 8.780 0 0 0
475 534 1 0.0 8.624 10.816 7.353 0 0 0
476 535 1 0.0 10.052 12.247 8.780 0 0 0
477 536 1 0.0 11.480 10.816 7.353 0 0 0
890 537 1 0.0 10.052 12.247 11.637 0 0 0
870 538 1 0.0 7.196 9.391 11.637 0 0 0
872 539 1 0.0 10.052 9.391 11.637 0 0 0
888 540 1 0.0 7.196 12.247 11.637 0 0 0
875 541 1 0.0 14.336 7.966 10.200 0 0 0
877 542 1 0.0 17.191 7.966 10.200 0 0 0
461 543 1 0.0 14.336 7.966 7.353 0 0 0
463 544 1 0.0 17.191 7.966 7.353 0 0 0
893 545 1 0.0 14.336 10.816 10.200 0 0 0
895 546 1 0.0 17.191 10.816 10.200 0 0 0
460 547 1 0.0 12.908 9.391 8.780 0 0 0
462 548 1 0.0 15.763 9.391 8.780 0 0 0
464 549 1 0.0 18.619 9.391 8.780 0 0 0
478 550 1 0.0 12.908 12.247 8.780 0 0 0
479 551 1 0.0 14.336 10.816 7.353 0 0 0
480 552 1 0.0 15.763 12.247 8.780 0 0 0
481 553 1 0.0 17.191 10.816 7.353 0 0 0
482 554 1 0.0 18.619 12.247 8.780 0 0 0
874 555 1 0.0 12.908 9.391 11.637 0 0 0
876 556 1 0.0 15.763 9.391 11.637 0 0 0
878 557 1 0.0 18.619 9.391 11.637 0 0 0
892 558 1 0.0 12.908 12.247 11.637 0 0 0
894 559 1 0.0 15.763 12.247 11.637 0 0 0
896 560 1 0.0 18.619 12.247 11.637 0 0 0
879 561 1 0.0 20.044 7.966 10.200 0 0 0
881 562 1 0.0 22.900 7.966 10.200 0 0 0
465 563 1 0.0 20.044 7.966 7.353 0 0 0
467 564 1 0.0 22.900 7.966 7.353 0 0 0
466 565 1 0.0 21.472 9.391 8.780 0 0 0
897 566 1 0.0 20.044 10.816 10.200 0 0 0
468 567 1 0.0 24.328 9.391 8.780 0 0 0
899 568 1 0.0 22.900 10.816 10.200 0 0 0
483 569 1 0.0 20.044 10.816 7.353 0 0 0
484 570 1 0.0 21.472 12.247 8.780 0 0 0
485 571 1 0.0 22.900 10.816 7.353 0 0 0
486 572 1 0.0 24.328 12.247 8.780 0 0 0
880 573 1 0.0 21.472 9.391 11.637 0 0 0
882 574 1 0.0 24.328 9.391 11.637 0 0 0
898 575 1 0.0 21.472 12.247 11.637 0 0 0
900 576 1 0.0 24.328 12.247 11.637 0 0 0
905 577 1 0.0 5.768 13.673 10.200 0 0 0
901 578 1 0.0 0.059 13.673 10.200 0 0 0
903 579 1 0.0 2.912 13.673 10.200 0 0 0
489 580 1 0.0 2.912 13.673 7.353 0 0 0
491 581 1 0.0 5.768 13.673 7.353 0 0 0
487 582 1 0.0 0.059 13.673 7.353 0 0 0
488 583 1 0.0 1.487 15.104 8.780 0 0 0
490 584 1 0.0 4.340 15.104 8.780 0 0 0
902 585 1 0.0 1.487 15.104 11.637 0 0 0
904 586 1 0.0 4.340 15.104 11.637 0 0 0
937 587 1 0.0 0.059 19.386 10.200 0 0 0
939 588 1 0.0 2.912 19.386 10.200 0 0 0
941 589 1 0.0 5.768 19.386 10.200 0 0 0
523 590 1 0.0 0.059 19.386 7.353 0 0 0
525 591 1 0.0 2.912 19.386 7.353 0 0 0
527 592 1 0.0 5.768 19.386 7.353 0 0 0
919 593 1 0.0 0.059 16.529 10.200 0 0 0
921 594 1 0.0 2.912 16.529 10.200 0 0 0
923 595 1 0.0 5.768 16.529 10.200 0 0 0
505 596 1 0.0 0.059 16.529 7.353 0 0 0
506 597 1 0.0 1.487 17.954 8.780 0 0 0
507 598 1 0.0 2.912 16.529 7.353 0 0 0
508 599 1 0.0 4.340 17.954 8.780 0 0 0
509 600 1 0.0 5.768 16.529 7.353 0 0 0
920 601 1 0.0 1.487 17.954 11.637 0 0 0
922 602 1 0.0 4.340 17.954 11.637 0 0 0
907 603 1 0.0 8.624 13.673 10.200 0 0 0
909 604 1 0.0 11.480 13.673 10.200 0 0 0
493 605 1 0.0 8.624 13.673 7.353 0 0 0
495 606 1 0.0 11.480 13.673 7.353 0 0 0
492 607 1 0.0 7.196 15.104 8.780 0 0 0
494 608 1 0.0 10.052 15.104 8.780 0 0 0
908 609 1 0.0 10.052 15.104 11.637 0 0 0
906 610 1 0.0 7.196 15.104 11.637 0 0 0
531 611 1 0.0 11.480 19.386 7.353 0 0 0
925 612 1 0.0 8.624 16.529 10.200 0 0 0
943 613 1 0.0 8.624 19.386 10.200 0 0 0
945 614 1 0.0 11.480 19.386 10.200 0 0 0
513 615 1 0.0 11.480 16.529 7.353 0 0 0
529 616 1 0.0 8.624 19.386 7.353 0 0 0
927 617 1 0.0 11.480 16.529 10.200 0 0 0
510 618 1 0.0 7.196 17.954 8.780 0 0 0
511 619 1 0.0 8.624 16.529 7.353 0 0 0
512 620 1 0.0 10.052 17.954 8.780 0 0 0
924 621 1 0.0 7.196 17.954 11.637 0 0 0
926 622 1 0.0 10.052 17.954 11.637 0 0 0
911 623 1 0.0 14.336 13.673 10.200 0 0 0
913 624 1 0.0 17.191 13.673 10.200 0 0 0
497 625 1 0.0 14.336 13.673 7.353 0 0 0
499 626 1 0.0 17.191 13.673 7.353 0 0 0
496 627 1 0.0 12.908 15.104 8.780 0 0 0
498 628 1 0.0 15.763 15.104 8.780 0 0 0
500 629 1 0.0 18.619 15.104 8.780 0 0 0
910 630 1 0.0 12.908 15.104 11.637 0 0 0
912 631 1 0.0 15.763 15.104 11.637 0 0 0
914 632 1 0.0 18.619 15.104 11.637 0 0 0
535 633 1 0.0 17.191 19.386 7.353 0 0 0
929 634 1 0.0 14.336 16.529 10.200 0 0 0
931 635 1 0.0 17.191 16.529 10.200 0 0 0
947 636 1 0.0 14.336 19.386 10.200 0 0 0
949 637 1 0.0 17.191 19.386 10.200 0 0 0
514 638 1 0.0 12.908 17.954 8.780 0 0 0
515 639 1 0.0 14.336 16.529 7.353 0 0 0
516 640 1 0.0 15.763 17.954 8.780 0 0 0
517 641 1 0.0 17.191 16.529 7.353 0 0 0
518 642 1 0.0 18.619 17.954 8.780 0 0 0
533 643 1 0.0 14.336 19.386 7.353 0 0 0
930 644 1 0.0 15.763 17.954 11.637 0 0 0
932 645 1 0.0 18.619 17.954 11.637 0 0 0
928 646 1 0.0 12.908 17.954 11.637 0 0 0
915 647 1 0.0 20.044 13.673 10.200 0 0 0
917 648 1 0.0 22.900 13.673 10.200 0 0 0
501 649 1 0.0 20.044 13.673 7.353 0 0 0
503 650 1 0.0 22.900 13.673 7.353 0 0 0
502 651 1 0.0 21.472 15.104 8.780 0 0 0
504 652 1 0.0 24.328 15.104 8.780 0 0 0
916 653 1 0.0 21.472 15.104 11.637 0 0 0
918 654 1 0.0 24.328 15.104 11.637 0 0 0
933 655 1 0.0 20.044 16.529 10.200 0 0 0
935 656 1 0.0 22.900 16.529 10.200 0 0 0
951 657 1 0.0 20.044 19.386 10.200 0 0 0
953 658 1 0.0 22.900 19.386 10.200 0 0 0
519 659 1 0.0 20.044 16.529 7.353 0 0 0
520 660 1 0.0 21.472 17.954 8.780 0 0 0
521 661 1 0.0 22.900 16.529 7.353 0 0 0
522 662 1 0.0 24.328 17.954 8.780 0 0 0
537 663 1 0.0 20.044 19.386 7.353 0 0 0
539 664 1 0.0 22.900 19.386 7.353 0 0 0
934 665 1 0.0 21.472 17.954 11.637 0 0 0
936 666 1 0.0 24.328 17.954 11.637 0 0 0
524 667 1 0.0 1.487 20.811 8.780 0 0 0
526 668 1 0.0 4.340 20.811 8.780 0 0 0
938 669 1 0.0 1.487 20.811 11.637 0 0 0
940 670 1 0.0 4.340 20.811 11.637 0 0 0
545 671 1 0.0 5.768 22.242 7.353 0 0 0
559 672 1 0.0 0.059 25.093 7.353 0 0 0
561 673 1 0.0 2.912 25.093 7.353 0 0 0
563 674 1 0.0 5.768 25.093 7.353 0 0 0
955 675 1 0.0 0.059 22.242 10.200 0 0 0
957 676 1 0.0 2.912 22.242 10.200 0 0 0
959 677 1 0.0 5.768 22.242 10.200 0 0 0
973 678 1 0.0 0.059 25.093 10.200 0 0 0
975 679 1 0.0 2.912 25.093 10.200 0 0 0
977 680 1 0.0 5.768 25.093 10.200 0 0 0
541 681 1 0.0 0.059 22.242 7.353 0 0 0
542 682 1 0.0 1.487 23.667 8.780 0 0 0
543 683 1 0.0 2.912 22.242 7.353 0 0 0
544 684 1 0.0 4.340 23.667 8.780 0 0 0
956 685 1 0.0 1.487 23.667 11.637 0 0 0
958 686 1 0.0 4.340 23.667 11.637 0 0 0
530 687 1 0.0 10.052 20.811 8.780 0 0 0
528 688 1 0.0 7.196 20.811 8.780 0 0 0
942 689 1 0.0 7.196 20.811 11.637 0 0 0
944 690 1 0.0 10.052 20.811 11.637 0 0 0
546 691 1 0.0 7.196 23.667 8.780 0 0 0
547 692 1 0.0 8.624 22.242 7.353 0 0 0
548 693 1 0.0 10.052 23.667 8.780 0 0 0
549 694 1 0.0 11.480 22.242 7.353 0 0 0
565 695 1 0.0 8.624 25.093 7.353 0 0 0
567 696 1 0.0 11.480 25.093 7.353 0 0 0
961 697 1 0.0 8.624 22.242 10.200 0 0 0
963 698 1 0.0 11.480 22.242 10.200 0 0 0
979 699 1 0.0 8.624 25.093 10.200 0 0 0
981 700 1 0.0 11.480 25.093 10.200 0 0 0
960 701 1 0.0 7.196 23.667 11.637 0 0 0
962 702 1 0.0 10.052 23.667 11.637 0 0 0
534 703 1 0.0 15.763 20.811 8.780 0 0 0
536 704 1 0.0 18.619 20.811 8.780 0 0 0
532 705 1 0.0 12.908 20.811 8.780 0 0 0
946 706 1 0.0 12.908 20.811 11.637 0 0 0
948 707 1 0.0 15.763 20.811 11.637 0 0 0
950 708 1 0.0 18.619 20.811 11.637 0 0 0
554 709 1 0.0 18.619 23.667 8.780 0 0 0
571 710 1 0.0 17.191 25.093 7.353 0 0 0
983 711 1 0.0 14.336 25.093 10.200 0 0 0
965 712 1 0.0 14.336 22.242 10.200 0 0 0
552 713 1 0.0 15.763 23.667 8.780 0 0 0
551 714 1 0.0 14.336 22.242 7.353 0 0 0
985 715 1 0.0 17.191 25.093 10.200 0 0 0
569 716 1 0.0 14.336 25.093 7.353 0 0 0
550 717 1 0.0 12.908 23.667 8.780 0 0 0
967 718 1 0.0 17.191 22.242 10.200 0 0 0
553 719 1 0.0 17.191 22.242 7.353 0 0 0
964 720 1 0.0 12.908 23.667 11.637 0 0 0
966 721 1 0.0 15.763 23.667 11.637 0 0 0
968 722 1 0.0 18.619 23.667 11.637 0 0 0
538 723 1 0.0 21.472 20.811 8.780 0 0 0
540 724 1 0.0 24.328 20.811 8.780 0 0 0
952 725 1 0.0 21.472 20.811 11.637 0 0 0
954 726 1 0.0 24.328 20.811 11.637 0 0 0
573 727 1 0.0 20.044 25.093 7.353 0 0 0
575 728 1 0.0 22.900 25.093 7.353 0 0 0
969 729 1 0.0 20.044 22.242 10.200 0 0 0
971 730 1 0.0 22.900 22.242 10.200 0 0 0
987 731 1 0.0 20.044 25.093 10.200 0 0 0
989 732 1 0.0 22.900 25.093 10.200 0 0 0
555 733 1 0.0 20.044 22.242 7.353 0 0 0
556 734 1 0.0 21.472 23.667 8.780 0 0 0
557 735 1 0.0 22.900 22.242 7.353 0 0 0
558 736 1 0.0 24.328 23.667 8.780 0 0 0
970 737 1 0.0 21.472 23.667 11.637 0 0 0
972 738 1 0.0 24.328 23.667 11.637 0 0 0
560 739 1 0.0 1.487 26.524 8.780 0 0 0
562 740 1 0.0 4.340 26.524 8.780 0 0 0
974 741 1 0.0 1.487 26.524 11.637 0 0 0
976 742 1 0.0 4.340 26.524 11.637 0 0 0
577 743 1 0.0 0.059 27.949 7.353 0 0 0
579 744 1 0.0 2.912 27.949 7.353 0 0 0
581 745 1 0.0 5.768 27.949 7.353 0 0 0
991 746 1 0.0 0.059 27.949 10.200 0 0 0
993 747 1 0.0 2.912 27.949 10.200 0 0 0
995 748 1 0.0 5.768 27.949 10.200 0 0 0
578 749 1 0.0 1.487 29.381 8.780 0 0 0
580 750 1 0.0 4.340 29.381 8.780 0 0 0
595 751 1 0.0 0.059 30.806 7.353 0 0 0
596 752 1 0.0 1.487 32.231 8.780 0 0 0
597 753 1 0.0 2.912 30.806 7.353 0 0 0
598 754 1 0.0 4.340 32.231 8.780 0 0 0
599 755 1 0.0 5.768 30.806 7.353 0 0 0
1009 756 1 0.0 0.059 30.806 10.200 0 0 0
1011 757 1 0.0 2.912 30.806 10.200 0 0 0
1013 758 1 0.0 5.768 30.806 10.200 0 0 0
992 759 1 0.0 1.487 29.381 11.637 0 0 0