ITEM: TIMESTEP
0
ITEM: NUMBER OF ATOMS
12902
ITEM: BOX BOUNDS pp pp ff
-5.8304000000000002e-02 2.5715710000000001e+01
0.0000000000000000e+00 6.5670043000000007e+01
3.0000000000000000e+01 1.1500000000000000e+02
ITEM: ATOMS id type xs ys zs
37 1 0.0023 0.0870 0.0530
39 1 0.1130 0.0870 0.0530
41 1 0.2238 0.0870 0.0530
1 1 0.0023 0.0000 0.0530
2 1 0.0577 0.0217 0.0697
3 1 0.1130 0.0000 0.0530
4 1 0.1684 0.0217 0.0697
5 1 0.2238 0.0000 0.0530
19 1 0.0023 0.0435 0.0530
20 1 0.0577 0.0652 0.0697
21 1 0.1130 0.0435 0.0530
22 1 0.1684 0.0652 0.0697
23 1 0.2238 0.0435 0.0530
43 1 0.3346 0.0870 0.0530
45 1 0.4454 0.0870 0.0530
6 1 0.2792 0.0217 0.0697
7 1 0.3346 0.0000 0.0530
8 1 0.3900 0.0217 0.0697
9 1 0.4454 0.0000 0.0530
24 1 0.2792 0.0652 0.0697
25 1 0.3346 0.0435 0.0530
26 1 0.3900 0.0652 0.0697
27 1 0.4454 0.0435 0.0530
47 1 0.5562 0.0870 0.0530
49 1 0.6670 0.0870 0.0530
10 1 0.5008 0.0217 0.0697
11 1 0.5562 0.0000 0.0530
12 1 0.6116 0.0217 0.0697
13 1 0.6670 0.0000 0.0530
14 1 0.7224 0.0217 0.0697
28 1 0.5008 0.0652 0.0697
29 1 0.5562 0.0435 0.0530
30 1 0.6116 0.0652 0.0697
31 1 0.6670 0.0435 0.0530
32 1 0.7224 0.0652 0.0697
33 1 0.7777 0.0435 0.0530
34 1 0.8331 0.0652 0.0697
35 1 0.8885 0.0435 0.0530
36 1 0.9439 0.0652 0.0697
51 1 0.7777 0.0870 0.0530
53 1 0.8885 0.0870 0.0530
15 1 0.7777 0.0000 0.0530
16 1 0.8331 0.0217 0.0697
17 1 0.8885 0.0000 0.0530
18 1 0.9439 0.0217 0.0697
59 1 0.2238 0.1304 0.0530
75 1 0.1130 0.1739 0.0530
73 1 0.0023 0.1739 0.0530
38 1 0.0577 0.1087 0.0697
76 1 0.1684 0.1957 0.0697
57 1 0.1130 0.1304 0.0530
77 1 0.2238 0.1739 0.0530
40 1 0.1684 0.1087 0.0697
58 1 0.1684 0.1522 0.0697
74 1 0.0577 0.1957 0.0697
55 1 0.0023 0.1304 0.0530
56 1 0.0577 0.1522 0.0697
79 1 0.3346 0.1739 0.0530
80 1 0.3900 0.1957 0.0697
81 1 0.4454 0.1739 0.0530
42 1 0.2792 0.1087 0.0697
44 1 0.3900 0.1087 0.0697
60 1 0.2792 0.1522 0.0697
61 1 0.3346 0.1304 0.0530
62 1 0.3900 0.1522 0.0697
63 1 0.4454 0.1304 0.0530
78 1 0.2792 0.1957 0.0697
46 1 0.5008 0.1087 0.0697
48 1 0.6116 0.1087 0.0697
50 1 0.7224 0.1087 0.0697
64 1 0.5008 0.1522 0.0697
65 1 0.5562 0.1304 0.0530
66 1 0.6116 0.1522 0.0697
67 1 0.6670 0.1304 0.0530
68 1 0.7224 0.1522 0.0697
82 1 0.5008 0.1957 0.0697
83 1 0.5562 0.1739 0.0530
84 1 0.6116 0.1957 0.0697
85 1 0.6670 0.1739 0.0530
86 1 0.7224 0.1957 0.0697
52 1 0.8331 0.1087 0.0697
54 1 0.9439 0.1087 0.0697
69 1 0.7777 0.1304 0.0530
70 1 0.8331 0.1522 0.0697
71 1 0.8885 0.1304 0.0530
72 1 0.9439 0.1522 0.0697
87 1 0.7777 0.1739 0.0530
88 1 0.8331 0.1957 0.0697
89 1 0.8885 0.1739 0.0530
90 1 0.9439 0.1957 0.0697
91 1 0.0023 0.2174 0.0530
92 1 0.0577 0.2391 0.0697
93 1 0.1130 0.2174 0.0530
94 1 0.1684 0.2391 0.0697
95 1 0.2238 0.2174 0.0530
109 1 0.0023 0.2609 0.0530
110 1 0.0577 0.2826 0.0697
111 1 0.1130 0.2609 0.0530
112 1 0.1684 0.2826 0.0697
113 1 0.2238 0.2609 0.0530
96 1 0.2792 0.2391 0.0697
97 1 0.3346 0.2174 0.0530
98 1 0.3900 0.2391 0.0697
99 1 0.4454 0.2174 0.0530
114 1 0.2792 0.2826 0.0697
115 1 0.3346 0.2609 0.0530
116 1 0.3900 0.2826 0.0697
117 1 0.4454 0.2609 0.0530
100 1 0.5008 0.2391 0.0697
101 1 0.5562 0.2174 0.0530
102 1 0.6116 0.2391 0.0697
103 1 0.6670 0.2174 0.0530
104 1 0.7224 0.2391 0.0697
118 1 0.5008 0.2826 0.0697
119 1 0.5562 0.2609 0.0530
120 1 0.6116 0.2826 0.0697
121 1 0.6670 0.2609 0.0530
122 1 0.7224 0.2826 0.0697
105 1 0.7777 0.2174 0.0530
106 1 0.8331 0.2391 0.0697
107 1 0.8885 0.2174 0.0530
108 1 0.9439 0.2391 0.0697
123 1 0.7777 0.2609 0.0530
124 1 0.8331 0.2826 0.0697
125 1 0.8885 0.2609 0.0530
126 1 0.9439 0.2826 0.0697
163 1 0.0023 0.3913 0.0530
165 1 0.1130 0.3913 0.0530
167 1 0.2238 0.3913 0.0530
129 1 0.1130 0.3044 0.0530
130 1 0.1684 0.3261 0.0697
131 1 0.2238 0.3044 0.0530
145 1 0.0023 0.3478 0.0530
146 1 0.0577 0.3696 0.0697
147 1 0.1130 0.3478 0.0530
148 1 0.1684 0.3696 0.0697
149 1 0.2238 0.3478 0.0530
127 1 0.0023 0.3044 0.0530
128 1 0.0577 0.3261 0.0697
169 1 0.3346 0.3913 0.0530
171 1 0.4454 0.3913 0.0530
132 1 0.2792 0.3261 0.0697
133 1 0.3346 0.3044 0.0530
134 1 0.3900 0.3261 0.0697
135 1 0.4454 0.3044 0.0530
150 1 0.2792 0.3696 0.0697
151 1 0.3346 0.3478 0.0530
152 1 0.3900 0.3696 0.0697
153 1 0.4454 0.3478 0.0530
139 1 0.6670 0.3044 0.0530
156 1 0.6116 0.3696 0.0697
158 1 0.7224 0.3696 0.0697
175 1 0.6670 0.3913 0.0530
138 1 0.6116 0.3261 0.0697
155 1 0.5562 0.3478 0.0530
154 1 0.5008 0.3696 0.0697
157 1 0.6670 0.3478 0.0530
137 1 0.5562 0.3044 0.0530
140 1 0.7224 0.3261 0.0697
136 1 0.5008 0.3261 0.0697
173 1 0.5562 0.3913 0.0530
141 1 0.7777 0.3044 0.0530
142 1 0.8331 0.3261 0.0697
143 1 0.8885 0.3044 0.0530
144 1 0.9439 0.3261 0.0697
159 1 0.7777 0.3478 0.0530
160 1 0.8331 0.3696 0.0697
161 1 0.8885 0.3478 0.0530
162 1 0.9439 0.3696 0.0697
177 1 0.7777 0.3913 0.0530
179 1 0.8885 0.3913 0.0530
164 1 0.0577 0.4131 0.0697
166 1 0.1684 0.4131 0.0697
181 1 0.0023 0.4348 0.0530
182 1 0.0577 0.4565 0.0697
183 1 0.1130 0.4348 0.0530
184 1 0.1684 0.4565 0.0697
185 1 0.2238 0.4348 0.0530
199 1 0.0023 0.4783 0.0530
201 1 0.1130 0.4783 0.0530
203 1 0.2238 0.4783 0.0530
168 1 0.2792 0.4131 0.0697
170 1 0.3900 0.4131 0.0697
186 1 0.2792 0.4565 0.0697
187 1 0.3346 0.4348 0.0530
188 1 0.3900 0.4565 0.0697
189 1 0.4454 0.4348 0.0530
205 1 0.3346 0.4783 0.0530
207 1 0.4454 0.4783 0.0530
172 1 0.5008 0.4131 0.0697
174 1 0.6116 0.4131 0.0697
176 1 0.7224 0.4131 0.0697
190 1 0.5008 0.4565 0.0697
191 1 0.5562 0.4348 0.0530
192 1 0.6116 0.4565 0.0697
193 1 0.6670 0.4348 0.0530
194 1 0.7224 0.4565 0.0697
209 1 0.5562 0.4783 0.0530
211 1 0.6670 0.4783 0.0530
198 1 0.9439 0.4565 0.0697
213 1 0.7777 0.4783 0.0530
215 1 0.8885 0.4783 0.0530
178 1 0.8331 0.4131 0.0697
180 1 0.9439 0.4131 0.0697
195 1 0.7777 0.4348 0.0530
196 1 0.8331 0.4565 0.0697
197 1 0.8885 0.4348 0.0530
200 1 0.0577 0.5000 0.0697
202 1 0.1684 0.5000 0.0697
217 1 0.0023 0.5218 0.0530
218 1 0.0577 0.5435 0.0697
219 1 0.1130 0.5218 0.0530
220 1 0.1684 0.5435 0.0697
221 1 0.2238 0.5218 0.0530
235 1 0.0023 0.5652 0.0530
236 1 0.0577 0.5870 0.0697
237 1 0.1130 0.5652 0.0530
238 1 0.1684 0.5870 0.0697
239 1 0.2238 0.5652 0.0530
204 1 0.2792 0.5000 0.0697
206 1 0.3900 0.5000 0.0697
222 1 0.2792 0.5435 0.0697
223 1 0.3346 0.5218 0.0530
224 1 0.3900 0.5435 0.0697
225 1 0.4454 0.5218 0.0530
240 1 0.2792 0.5870 0.0697
241 1 0.3346 0.5652 0.0530
242 1 0.3900 0.5870 0.0697
243 1 0.4454 0.5652 0.0530
208 1 0.5008 0.5000 0.0697
210 1 0.6116 0.5000 0.0697
212 1 0.7224 0.5000 0.0697
226 1 0.5008 0.5435 0.0697
227 1 0.5562 0.5218 0.0530
228 1 0.6116 0.5435 0.0697
229 1 0.6670 0.5218 0.0530
230 1 0.7224 0.5435 0.0697
244 1 0.5008 0.5870 0.0697
245 1 0.5562 0.5652 0.0530
246 1 0.6116 0.5870 0.0697
247 1 0.6670 0.5652 0.0530
248 1 0.7224 0.5870 0.0697
251 1 0.8885 0.5652 0.0530
252 1 0.9439 0.5870 0.0697
214 1 0.8331 0.5000 0.0697
216 1 0.9439 0.5000 0.0697
231 1 0.7777 0.5218 0.0530
232 1 0.8331 0.5435 0.0697
233 1 0.8885 0.5218 0.0530
234 1 0.9439 0.5435 0.0697
249 1 0.7777 0.5652 0.0530
250 1 0.8331 0.5870 0.0697
254 1 0.0577 0.6305 0.0697
253 1 0.0023 0.6087 0.0530
256 1 0.1684 0.6305 0.0697
274 1 0.1684 0.6739 0.0697
257 1 0.2238 0.6087 0.0530
271 1 0.0023 0.6522 0.0530
289 1 0.0023 0.6957 0.0530
293 1 0.2238 0.6957 0.0530
255 1 0.1130 0.6087 0.0530
272 1 0.0577 0.6739 0.0697
291 1 0.1130 0.6957 0.0530
273 1 0.1130 0.6522 0.0530
275 1 0.2238 0.6522 0.0530
295 1 0.3346 0.6957 0.0530
297 1 0.4454 0.6957 0.0530
258 1 0.2792 0.6305 0.0697
259 1 0.3346 0.6087 0.0530
260 1 0.3900 0.6305 0.0697
261 1 0.4454 0.6087 0.0530
276 1 0.2792 0.6739 0.0697
277 1 0.3346 0.6522 0.0530
278 1 0.3900 0.6739 0.0697
279 1 0.4454 0.6522 0.0530
262 1 0.5008 0.6305 0.0697
263 1 0.5562 0.6087 0.0530
264 1 0.6116 0.6305 0.0697
265 1 0.6670 0.6087 0.0530
266 1 0.7224 0.6305 0.0697
280 1 0.5008 0.6739 0.0697
281 1 0.5562 0.6522 0.0530
282 1 0.6116 0.6739 0.0697
283 1 0.6670 0.6522 0.0530
284 1 0.7224 0.6739 0.0697
299 1 0.5562 0.6957 0.0530
301 1 0.6670 0.6957 0.0530
303 1 0.7777 0.6957 0.0530
305 1 0.8885 0.6957 0.0530
267 1 0.7777 0.6087 0.0530
268 1 0.8331 0.6305 0.0697
269 1 0.8885 0.6087 0.0530
270 1 0.9439 0.6305 0.0697
285 1 0.7777 0.6522 0.0530
286 1 0.8331 0.6739 0.0697
287 1 0.8885 0.6522 0.0530
288 1 0.9439 0.6739 0.0697
290 1 0.0577 0.7174 0.0697
292 1 0.1684 0.7174 0.0697
307 1 0.0023 0.7392 0.0530
308 1 0.0577 0.7609 0.0697
309 1 0.1130 0.7392 0.0530
310 1 0.1684 0.7609 0.0697
311 1 0.2238 0.7392 0.0530
325 1 0.0023 0.7826 0.0530
327 1 0.1130 0.7826 0.0530
329 1 0.2238 0.7826 0.0530
294 1 0.2792 0.7174 0.0697
296 1 0.3900 0.7174 0.0697
312 1 0.2792 0.7609 0.0697
313 1 0.3346 0.7392 0.0530
314 1 0.3900 0.7609 0.0697
315 1 0.4454 0.7392 0.0530
331 1 0.3346 0.7826 0.0530
333 1 0.4454 0.7826 0.0530
335 1 0.5562 0.7826 0.0530
337 1 0.6670 0.7826 0.0530
298 1 0.5008 0.7174 0.0697
300 1 0.6116 0.7174 0.0697
302 1 0.7224 0.7174 0.0697
316 1 0.5008 0.7609 0.0697
317 1 0.5562 0.7392 0.0530
318 1 0.6116 0.7609 0.0697
319 1 0.6670 0.7392 0.0530
320 1 0.7224 0.7609 0.0697
304 1 0.8331 0.7174 0.0697
306 1 0.9439 0.7174 0.0697
321 1 0.7777 0.7392 0.0530
322 1 0.8331 0.7609 0.0697
323 1 0.8885 0.7392 0.0530
324 1 0.9439 0.7609 0.0697
339 1 0.7777 0.7826 0.0530
341 1 0.8885 0.7826 0.0530
326 1 0.0577 0.8044 0.0697
328 1 0.1684 0.8044 0.0697
343 1 0.0023 0.8261 0.0530
344 1 0.0577 0.8479 0.0697
345 1 0.1130 0.8261 0.0530
346 1 0.1684 0.8479 0.0697
347 1 0.2238 0.8261 0.0530
361 1 0.0023 0.8696 0.0530
362 1 0.0577 0.8913 0.0697
363 1 0.1130 0.8696 0.0530
364 1 0.1684 0.8913 0.0697
365 1 0.2238 0.8696 0.0530
330 1 0.2792 0.8044 0.0697
332 1 0.3900 0.8044 0.0697
348 1 0.2792 0.8479 0.0697
349 1 0.3346 0.8261 0.0530
350 1 0.3900 0.8479 0.0697
351 1 0.4454 0.8261 0.0530
366 1 0.2792 0.8913 0.0697
367 1 0.3346 0.8696 0.0530
368 1 0.3900 0.8913 0.0697
369 1 0.4454 0.8696 0.0530
355 1 0.6670 0.8261 0.0530
356 1 0.7224 0.8479 0.0697
334 1 0.5008 0.8044 0.0697
370 1 0.5008 0.8913 0.0697
336 1 0.6116 0.8044 0.0697
371 1 0.5562 0.8696 0.0530
372 1 0.6116 0.8913 0.0697
373 1 0.6670 0.8696 0.0530
374 1 0.7224 0.8913 0.0697
338 1 0.7224 0.8044 0.0697
353 1 0.5562 0.8261 0.0530
352 1 0.5008 0.8479 0.0697
354 1 0.6116 0.8479 0.0697
357 1 0.7777 0.8261 0.0530
358 1 0.8331 0.8479 0.0697
359 1 0.8885 0.8261 0.0530
360 1 0.9439 0.8479 0.0697
375 1 0.7777 0.8696 0.0530
376 1 0.8331 0.8913 0.0697
377 1 0.8885 0.8696 0.0530
378 1 0.9439 0.8913 0.0697
340 1 0.8331 0.8044 0.0697
342 1 0.9439 0.8044 0.0697
397 1 0.0023 0.9566 0.0530
398 1 0.0577 0.9783 0.0697
399 1 0.1130 0.9566 0.0530
400 1 0.1684 0.9783 0.0697
401 1 0.2238 0.9566 0.0530
379 1 0.0023 0.9131 0.0530
380 1 0.0577 0.9348 0.0697
381 1 0.1130 0.9131 0.0530
382 1 0.1684 0.9348 0.0697
383 1 0.2238 0.9131 0.0530
385 1 0.3346 0.9131 0.0530
386 1 0.3900 0.9348 0.0697
387 1 0.4454 0.9131 0.0530
402 1 0.2792 0.9783 0.0697
403 1 0.3346 0.9566 0.0530
404 1 0.3900 0.9783 0.0697
405 1 0.4454 0.9566 0.0530
384 1 0.2792 0.9348 0.0697
388 1 0.5008 0.9348 0.0697
389 1 0.5562 0.9131 0.0530
390 1 0.6116 0.9348 0.0697
391 1 0.6670 0.9131 0.0530
392 1 0.7224 0.9348 0.0697
406 1 0.5008 0.9783 0.0697
407 1 0.5562 0.9566 0.0530
408 1 0.6116 0.9783 0.0697
409 1 0.6670 0.9566 0.0530
410 1 0.7224 0.9783 0.0697
393 1 0.7777 0.9131 0.0530
394 1 0.8331 0.9348 0.0697
395 1 0.8885 0.9131 0.0530
396 1 0.9439 0.9348 0.0697
411 1 0.7777 0.9566 0.0530
412 1 0.8331 0.9783 0.0697
413 1 0.8885 0.9566 0.0530
414 1 0.9439 0.9783 0.0697
851 1 0.2238 0.0435 0.1200
865 1 0.0023 0.0870 0.1200
867 1 0.1130 0.0870 0.1200
869 1 0.2238 0.0870 0.1200
451 1 0.0023 0.0870 0.0865
453 1 0.1130 0.0870 0.0865
455 1 0.2238 0.0870 0.0865
415 1 0.0023 0.0000 0.0865
416 1 0.0577 0.0217 0.1033
417 1 0.1130 0.0000 0.0865
418 1 0.1684 0.0217 0.1033
829 1 0.0023 0.0000 0.1200
419 1 0.2238 0.0000 0.0865
831 1 0.1130 0.0000 0.1200
433 1 0.0023 0.0435 0.0865
434 1 0.0577 0.0652 0.1033
435 1 0.1130 0.0435 0.0865
436 1 0.1684 0.0652 0.1033
437 1 0.2238 0.0435 0.0865
833 1 0.2238 0.0000 0.1200
847 1 0.0023 0.0435 0.1200
849 1 0.1130 0.0435 0.1200
830 1 0.0577 0.0217 0.1369
832 1 0.1684 0.0217 0.1369
848 1 0.0577 0.0652 0.1369
850 1 0.1684 0.0652 0.1369
420 1 0.2792 0.0217 0.1033
421 1 0.3346 0.0000 0.0865
422 1 0.3900 0.0217 0.1033
423 1 0.4454 0.0000 0.0865
438 1 0.2792 0.0652 0.1033
439 1 0.3346 0.0435 0.0865
440 1 0.3900 0.0652 0.1033
441 1 0.4454 0.0435 0.0865
835 1 0.3346 0.0000 0.1200
837 1 0.4454 0.0000 0.1200
853 1 0.3346 0.0435 0.1200
855 1 0.4454 0.0435 0.1200
871 1 0.3346 0.0870 0.1200
873 1 0.4454 0.0870 0.1200
457 1 0.3346 0.0870 0.0865
459 1 0.4454 0.0870 0.0865
834 1 0.2792 0.0217 0.1369
836 1 0.3900 0.0217 0.1369
852 1 0.2792 0.0652 0.1369
854 1 0.3900 0.0652 0.1369
424 1 0.5008 0.0217 0.1033
425 1 0.5562 0.0000 0.0865
426 1 0.6116 0.0217 0.1033
427 1 0.6670 0.0000 0.0865
428 1 0.7224 0.0217 0.1033
442 1 0.5008 0.0652 0.1033
443 1 0.5562 0.0435 0.0865
444 1 0.6116 0.0652 0.1033
445 1 0.6670 0.0435 0.0865
446 1 0.7224 0.0652 0.1033
839 1 0.5562 0.0000 0.1200
841 1 0.6670 0.0000 0.1200
857 1 0.5562 0.0435 0.1200
859 1 0.6670 0.0435 0.1200
875 1 0.5562 0.0870 0.1200
877 1 0.6670 0.0870 0.1200
461 1 0.5562 0.0870 0.0865
463 1 0.6670 0.0870 0.0865
838 1 0.5008 0.0217 0.1369
840 1 0.6116 0.0217 0.1369
842 1 0.7224 0.0217 0.1369
856 1 0.5008 0.0652 0.1369
858 1 0.6116 0.0652 0.1369
860 1 0.7224 0.0652 0.1369
429 1 0.7777 0.0000 0.0865
430 1 0.8331 0.0217 0.1033
431 1 0.8885 0.0000 0.0865
432 1 0.9439 0.0217 0.1033
447 1 0.7777 0.0435 0.0865
448 1 0.8331 0.0652 0.1033
843 1 0.7777 0.0000 0.1200
845 1 0.8885 0.0000 0.1200
861 1 0.7777 0.0435 0.1200
863 1 0.8885 0.0435 0.1200
879 1 0.7777 0.0870 0.1200
881 1 0.8885 0.0870 0.1200
449 1 0.8885 0.0435 0.0865
450 1 0.9439 0.0652 0.1033
465 1 0.7777 0.0870 0.0865
467 1 0.8885 0.0870 0.0865
844 1 0.8331 0.0217 0.1369
846 1 0.9439 0.0217 0.1369
862 1 0.8331 0.0652 0.1369
864 1 0.9439 0.0652 0.1369
470 1 0.0577 0.1522 0.1033
887 1 0.2238 0.1304 0.1200
905 1 0.2238 0.1739 0.1200
488 1 0.0577 0.1957 0.1033
454 1 0.1684 0.1087 0.1033
901 1 0.0023 0.1739 0.1200
472 1 0.1684 0.1522 0.1033
452 1 0.0577 0.1087 0.1033
473 1 0.2238 0.1304 0.0865
885 1 0.1130 0.1304 0.1200
469 1 0.0023 0.1304 0.0865
903 1 0.1130 0.1739 0.1200
489 1 0.1130 0.1739 0.0865
491 1 0.2238 0.1739 0.0865
490 1 0.1684 0.1957 0.1033
487 1 0.0023 0.1739 0.0865
883 1 0.0023 0.1304 0.1200
471 1 0.1130 0.1304 0.0865
866 1 0.0577 0.1087 0.1369
868 1 0.1684 0.1087 0.1369
884 1 0.0577 0.1522 0.1369
886 1 0.1684 0.1522 0.1369
902 1 0.0577 0.1957 0.1369
904 1 0.1684 0.1957 0.1369
889 1 0.3346 0.1304 0.1200
891 1 0.4454 0.1304 0.1200
456 1 0.2792 0.1087 0.1033
907 1 0.3346 0.1739 0.1200
458 1 0.3900 0.1087 0.1033
474 1 0.2792 0.1522 0.1033
909 1 0.4454 0.1739 0.1200
475 1 0.3346 0.1304 0.0865
476 1 0.3900 0.1522 0.1033
477 1 0.4454 0.1304 0.0865
492 1 0.2792 0.1957 0.1033
493 1 0.3346 0.1739 0.0865
494 1 0.3900 0.1957 0.1033
495 1 0.4454 0.1739 0.0865
908 1 0.3900 0.1957 0.1369
890 1 0.3900 0.1522 0.1369
870 1 0.2792 0.1087 0.1369
906 1 0.2792 0.1957 0.1369
872 1 0.3900 0.1087 0.1369
888 1 0.2792 0.1522 0.1369
893 1 0.5562 0.1304 0.1200
895 1 0.6670 0.1304 0.1200
460 1 0.5008 0.1087 0.1033
911 1 0.5562 0.1739 0.1200
462 1 0.6116 0.1087 0.1033
464 1 0.7224 0.1087 0.1033
913 1 0.6670 0.1739 0.1200
478 1 0.5008 0.1522 0.1033
479 1 0.5562 0.1304 0.0865
480 1 0.6116 0.1522 0.1033
481 1 0.6670 0.1304 0.0865
482 1 0.7224 0.1522 0.1033
496 1 0.5008 0.1957 0.1033
497 1 0.5562 0.1739 0.0865
498 1 0.6116 0.1957 0.1033
499 1 0.6670 0.1739 0.0865
500 1 0.7224 0.1957 0.1033
874 1 0.5008 0.1087 0.1369
876 1 0.6116 0.1087 0.1369
878 1 0.7224 0.1087 0.1369
892 1 0.5008 0.1522 0.1369
894 1 0.6116 0.1522 0.1369
896 1 0.7224 0.1522 0.1369
910 1 0.5008 0.1957 0.1369
912 1 0.6116 0.1957 0.1369
914 1 0.7224 0.1957 0.1369
466 1 0.8331 0.1087 0.1033
897 1 0.7777 0.1304 0.1200
468 1 0.9439 0.1087 0.1033
899 1 0.8885 0.1304 0.1200
915 1 0.7777 0.1739 0.1200
917 1 0.8885 0.1739 0.1200
483 1 0.7777 0.1304 0.0865
484 1 0.8331 0.1522 0.1033
485 1 0.8885 0.1304 0.0865
486 1 0.9439 0.1522 0.1033
501 1 0.7777 0.1739 0.0865
502 1 0.8331 0.1957 0.1033
503 1 0.8885 0.1739 0.0865
504 1 0.9439 0.1957 0.1033
880 1 0.8331 0.1087 0.1369
882 1 0.9439 0.1087 0.1369
898 1 0.8331 0.1522 0.1369
900 1 0.9439 0.1522 0.1369
916 1 0.8331 0.1957 0.1369
918 1 0.9439 0.1957 0.1369
937 1 0.0023 0.2609 0.1200
939 1 0.1130 0.2609 0.1200
941 1 0.2238 0.2609 0.1200
523 1 0.0023 0.2609 0.0865
524 1 0.0577 0.2826 0.1033
525 1 0.1130 0.2609 0.0865
526 1 0.1684 0.2826 0.1033
527 1 0.2238 0.2609 0.0865
919 1 0.0023 0.2174 0.1200
921 1 0.1130 0.2174 0.1200
923 1 0.2238 0.2174 0.1200
505 1 0.0023 0.2174 0.0865
506 1 0.0577 0.2391 0.1033
507 1 0.1130 0.2174 0.0865
508 1 0.1684 0.2391 0.1033
509 1 0.2238 0.2174 0.0865
938 1 0.0577 0.2826 0.1369
940 1 0.1684 0.2826 0.1369
920 1 0.0577 0.2391 0.1369
922 1 0.1684 0.2391 0.1369
530 1 0.3900 0.2826 0.1033
531 1 0.4454 0.2609 0.0865
925 1 0.3346 0.2174 0.1200
943 1 0.3346 0.2609 0.1200
945 1 0.4454 0.2609 0.1200
513 1 0.4454 0.2174 0.0865
528 1 0.2792 0.2826 0.1033
529 1 0.3346 0.2609 0.0865
927 1 0.4454 0.2174 0.1200
510 1 0.2792 0.2391 0.1033
511 1 0.3346 0.2174 0.0865
512 1 0.3900 0.2391 0.1033
942 1 0.2792 0.2826 0.1369
944 1 0.3900 0.2826 0.1369
924 1 0.2792 0.2391 0.1369
926 1 0.3900 0.2391 0.1369
534 1 0.6116 0.2826 0.1033
535 1 0.6670 0.2609 0.0865
536 1 0.7224 0.2826 0.1033
929 1 0.5562 0.2174 0.1200
931 1 0.6670 0.2174 0.1200
947 1 0.5562 0.2609 0.1200
949 1 0.6670 0.2609 0.1200
514 1 0.5008 0.2391 0.1033
515 1 0.5562 0.2174 0.0865
516 1 0.6116 0.2391 0.1033
517 1 0.6670 0.2174 0.0865
518 1 0.7224 0.2391 0.1033
532 1 0.5008 0.2826 0.1033
533 1 0.5562 0.2609 0.0865
930 1 0.6116 0.2391 0.1369
932 1 0.7224 0.2391 0.1369
946 1 0.5008 0.2826 0.1369
948 1 0.6116 0.2826 0.1369
950 1 0.7224 0.2826 0.1369
928 1 0.5008 0.2391 0.1369
933 1 0.7777 0.2174 0.1200
935 1 0.8885 0.2174 0.1200
951 1 0.7777 0.2609 0.1200
953 1 0.8885 0.2609 0.1200
519 1 0.7777 0.2174 0.0865
520 1 0.8331 0.2391 0.1033
521 1 0.8885 0.2174 0.0865
522 1 0.9439 0.2391 0.1033
537 1 0.7777 0.2609 0.0865
538 1 0.8331 0.2826 0.1033
539 1 0.8885 0.2609 0.0865
540 1 0.9439 0.2826 0.1033
952 1 0.8331 0.2826 0.1369
954 1 0.9439 0.2826 0.1369
934 1 0.8331 0.2391 0.1369
936 1 0.9439 0.2391 0.1369
545 1 0.2238 0.3044 0.0865
559 1 0.0023 0.3478 0.0865
560 1 0.0577 0.3696 0.1033
561 1 0.1130 0.3478 0.0865
562 1 0.1684 0.3696 0.1033
563 1 0.2238 0.3478 0.0865
955 1 0.0023 0.3044 0.1200
957 1 0.1130 0.3044 0.1200
959 1 0.2238 0.3044 0.1200
577 1 0.0023 0.3913 0.0865
579 1 0.1130 0.3913 0.0865
581 1 0.2238 0.3913 0.0865
973 1 0.0023 0.3478 0.1200
975 1 0.1130 0.3478 0.1200
977 1 0.2238 0.3478 0.1200
991 1 0.0023 0.3913 0.1200
993 1 0.1130 0.3913 0.1200
541 1 0.0023 0.3044 0.0865
542 1 0.0577 0.3261 0.1033
543 1 0.1130 0.3044 0.0865
544 1 0.1684 0.3261 0.1033
995 1 0.2238 0.3913 0.1200
956 1 0.0577 0.3261 0.1369
958 1 0.1684 0.3261 0.1369
974 1 0.0577 0.3696 0.1369
976 1 0.1684 0.3696 0.1369
546 1 0.2792 0.3261 0.1033
547 1 0.3346 0.3044 0.0865
548 1 0.3900 0.3261 0.1033
549 1 0.4454 0.3044 0.0865
564 1 0.2792 0.3696 0.1033
565 1 0.3346 0.3478 0.0865
566 1 0.3900 0.3696 0.1033
567 1 0.4454 0.3478 0.0865
583 1 0.3346 0.3913 0.0865
585 1 0.4454 0.3913 0.0865
961 1 0.3346 0.3044 0.1200
963 1 0.4454 0.3044 0.1200
979 1 0.3346 0.3478 0.1200
981 1 0.4454 0.3478 0.1200
997 1 0.3346 0.3913 0.1200
999 1 0.4454 0.3913 0.1200
960 1 0.2792 0.3261 0.1369
962 1 0.3900 0.3261 0.1369
978 1 0.2792 0.3696 0.1369
980 1 0.3900 0.3696 0.1369
570 1 0.6116 0.3696 0.1033
554 1 0.7224 0.3261 0.1033
571 1 0.6670 0.3478 0.0865
589 1 0.6670 0.3913 0.0865
983 1 0.5562 0.3478 0.1200
572 1 0.7224 0.3696 0.1033
965 1 0.5562 0.3044 0.1200
552 1 0.6116 0.3261 0.1033
551 1 0.5562 0.3044 0.0865
587 1 0.5562 0.3913 0.0865
1001 1 0.5562 0.3913 0.1200
1003 1 0.6670 0.3913 0.1200
985 1 0.6670 0.3478 0.1200
568 1 0.5008 0.3696 0.1033
569 1 0.5562 0.3478 0.0865
550 1 0.5008 0.3261 0.1033
967 1 0.6670 0.3044 0.1200
553 1 0.6670 0.3044 0.0865
964 1 0.5008 0.3261 0.1369
966 1 0.6116 0.3261 0.1369
968 1 0.7224 0.3261 0.1369
982 1 0.5008 0.3696 0.1369
984 1 0.6116 0.3696 0.1369
986 1 0.7224 0.3696 0.1369
573 1 0.7777 0.3478 0.0865
574 1 0.8331 0.3696 0.1033
575 1 0.8885 0.3478 0.0865
576 1 0.9439 0.3696 0.1033
591 1 0.7777 0.3913 0.0865
593 1 0.8885 0.3913 0.0865
969 1 0.7777 0.3044 0.1200
971 1 0.8885 0.3044 0.1200
987 1 0.7777 0.3478 0.1200
989 1 0.8885 0.3478 0.1200
1005 1 0.7777 0.3913 0.1200
1007 1 0.8885 0.3913 0.1200
555 1 0.7777 0.3044 0.0865
556 1 0.8331 0.3261 0.1033
557 1 0.8885 0.3044 0.0865
558 1 0.9439 0.3261 0.1033
970 1 0.8331 0.3261 0.1369
972 1 0.9439 0.3261 0.1369
988 1 0.8331 0.3696 0.1369
990 1 0.9439 0.3696 0.1369
613 1 0.0023 0.4783 0.0865
615 1 0.1130 0.4783 0.0865
617 1 0.2238 0.4783 0.0865
578 1 0.0577 0.4131 0.1033
580 1 0.1684 0.4131 0.1033
595 1 0.0023 0.4348 0.0865
596 1 0.0577 0.4565 0.1033
597 1 0.1130 0.4348 0.0865
598 1 0.1684 0.4565 0.1033
599 1 0.2238 0.4348 0.0865
1009 1 0.0023 0.4348 0.1200
1011 1 0.1130 0.4348 0.1200
1013 1 0.2238 0.4348 0.1200
1027 1 0.0023 0.4783 0.1200
1029 1 0.1130 0.4783 0.1200
1031 1 0.2238 0.4783 0.1200
992 1 0.0577 0.4131 0.1369
994 1 0.1684 0.4131 0.1369
1010 1 0.0577 0.4565 0.1369
1012 1 0.1684 0.4565 0.1369
619 1 0.3346 0.4783 0.0865
621 1 0.4454 0.4783 0.0865
582 1 0.2792 0.4131 0.1033
584 1 0.3900 0.4131 0.1033
600 1 0.2792 0.4565 0.1033
601 1 0.3346 0.4348 0.0865
602 1 0.3900 0.4565 0.1033
603 1 0.4454 0.4348 0.0865
1015 1 0.3346 0.4348 0.1200
1017 1 0.4454 0.4348 0.1200
1033 1 0.3346 0.4783 0.1200
1035 1 0.4454 0.4783 0.1200
996 1 0.2792 0.4131 0.1369
998 1 0.3900 0.4131 0.1369
1014 1 0.2792 0.4565 0.1369
1016 1 0.3900 0.4565 0.1369
623 1 0.5562 0.4783 0.0865
625 1 0.6670 0.4783 0.0865
586 1 0.5008 0.4131 0.1033
588 1 0.6116 0.4131 0.1033
590 1 0.7224 0.4131 0.1033
604 1 0.5008 0.4565 0.1033
605 1 0.5562 0.4348 0.0865
606 1 0.6116 0.4565 0.1033
607 1 0.6670 0.4348 0.0865
608 1 0.7224 0.4565 0.1033
1019 1 0.5562 0.4348 0.1200
1021 1 0.6670 0.4348 0.1200
1037 1 0.5562 0.4783 0.1200
1039 1 0.6670 0.4783 0.1200
1000 1 0.5008 0.4131 0.1369
1002 1 0.6116 0.4131 0.1369
1004 1 0.7224 0.4131 0.1369
1018 1 0.5008 0.4565 0.1369
1020 1 0.6116 0.4565 0.1369
1022 1 0.7224 0.4565 0.1369
594 1 0.9439 0.4131 0.1033
1023 1 0.7777 0.4348 0.1200
1025 1 0.8885 0.4348 0.1200
611 1 0.8885 0.4348 0.0865
1041 1 0.7777 0.4783 0.1200
612 1 0.9439 0.4565 0.1033
609 1 0.7777 0.4348 0.0865
1043 1 0.8885 0.4783 0.1200
627 1 0.7777 0.4783 0.0865
610 1 0.8331 0.4565 0.1033
629 1 0.8885 0.4783 0.0865
592 1 0.8331 0.4131 0.1033
1026 1 0.9439 0.4565 0.1369
1006 1 0.8331 0.4131 0.1369
1008 1 0.9439 0.4131 0.1369
1024 1 0.8331 0.4565 0.1369
1047 1 0.1130 0.5218 0.1200
1049 1 0.2238 0.5218 0.1200
614 1 0.0577 0.5000 0.1033
616 1 0.1684 0.5000 0.1033
631 1 0.0023 0.5218 0.0865
632 1 0.0577 0.5435 0.1033
633 1 0.1130 0.5218 0.0865
634 1 0.1684 0.5435 0.1033
635 1 0.2238 0.5218 0.0865
1063 1 0.0023 0.5652 0.1200
1065 1 0.1130 0.5652 0.1200
1067 1 0.2238 0.5652 0.1200
649 1 0.0023 0.5652 0.0865
650 1 0.0577 0.5870 0.1033
651 1 0.1130 0.5652 0.0865
652 1 0.1684 0.5870 0.1033
653 1 0.2238 0.5652 0.0865
1045 1 0.0023 0.5218 0.1200
1064 1 0.0577 0.5870 0.1369
1066 1 0.1684 0.5870 0.1369
1028 1 0.0577 0.5000 0.1369
1030 1 0.1684 0.5000 0.1369
1046 1 0.0577 0.5435 0.1369
1048 1 0.1684 0.5435 0.1369
618 1 0.2792 0.5000 0.1033
620 1 0.3900 0.5000 0.1033
636 1 0.2792 0.5435 0.1033
637 1 0.3346 0.5218 0.0865
638 1 0.3900 0.5435 0.1033
639 1 0.4454 0.5218 0.0865
1069 1 0.3346 0.5652 0.1200
1071 1 0.4454 0.5652 0.1200
654 1 0.2792 0.5870 0.1033
655 1 0.3346 0.5652 0.0865
656 1 0.3900 0.5870 0.1033
657 1 0.4454 0.5652 0.0865
1051 1 0.3346 0.5218 0.1200
1053 1 0.4454 0.5218 0.1200
1068 1 0.2792 0.5870 0.1369
1070 1 0.3900 0.5870 0.1369
1032 1 0.2792 0.5000 0.1369
1034 1 0.3900 0.5000 0.1369
1050 1 0.2792 0.5435 0.1369
1052 1 0.3900 0.5435 0.1369
622 1 0.5008 0.5000 0.1033
624 1 0.6116 0.5000 0.1033
626 1 0.7224 0.5000 0.1033
640 1 0.5008 0.5435 0.1033
1057 1 0.6670 0.5218 0.1200
1073 1 0.5562 0.5652 0.1200
1075 1 0.6670 0.5652 0.1200
641 1 0.5562 0.5218 0.0865
642 1 0.6116 0.5435 0.1033
643 1 0.6670 0.5218 0.0865
644 1 0.7224 0.5435 0.1033
658 1 0.5008 0.5870 0.1033
659 1 0.5562 0.5652 0.0865
660 1 0.6116 0.5870 0.1033
661 1 0.6670 0.5652 0.0865
662 1 0.7224 0.5870 0.1033
1055 1 0.5562 0.5218 0.1200
1058 1 0.7224 0.5435 0.1369
1072 1 0.5008 0.5870 0.1369
1074 1 0.6116 0.5870 0.1369
1076 1 0.7224 0.5870 0.1369
1036 1 0.5008 0.5000 0.1369
1038 1 0.6116 0.5000 0.1369
1040 1 0.7224 0.5000 0.1369
1054 1 0.5008 0.5435 0.1369
1056 1 0.6116 0.5435 0.1369
645 1 0.7777 0.5218 0.0865
646 1 0.8331 0.5435 0.1033
647 1 0.8885 0.5218 0.0865
648 1 0.9439 0.5435 0.1033
663 1 0.7777 0.5652 0.0865
664 1 0.8331 0.5870 0.1033
665 1 0.8885 0.5652 0.0865
666 1 0.9439 0.5870 0.1033
628 1 0.8331 0.5000 0.1033
630 1 0.9439 0.5000 0.1033
1059 1 0.7777 0.5218 0.1200
1061 1 0.8885 0.5218 0.1200
1077 1 0.7777 0.5652 0.1200
1079 1 0.8885 0.5652 0.1200
1060 1 0.8331 0.5435 0.1369
1062 1 0.9439 0.5435 0.1369
1078 1 0.8331 0.5870 0.1369
1080 1 0.9439 0.5870 0.1369
1042 1 0.8331 0.5000 0.1369
1044 1 0.9439 0.5000 0.1369
707 1 0.2238 0.6957 0.0865
1081 1 0.0023 0.6087 0.1200
1099 1 0.0023 0.6522 0.1200
687 1 0.1130 0.6522 0.0865
1101 1 0.1130 0.6522 0.1200
1083 1 0.1130 0.6087 0.1200
688 1 0.1684 0.6739 0.1033
1121 1 0.2238 0.6957 0.1200
1103 1 0.2238 0.6522 0.1200
669 1 0.1130 0.6087 0.0865
1117 1 0.0023 0.6957 0.1200
1085 1 0.2238 0.6087 0.1200
671 1 0.2238 0.6087 0.0865
1119 1 0.1130 0.6957 0.1200
703 1 0.0023 0.6957 0.0865
689 1 0.2238 0.6522 0.0865
667 1 0.0023 0.6087 0.0865
705 1 0.1130 0.6957 0.0865
685 1 0.0023 0.6522 0.0865
686 1 0.0577 0.6739 0.1033
668 1 0.0577 0.6305 0.1033
670 1 0.1684 0.6305 0.1033
1082 1 0.0577 0.6305 0.1369
1084 1 0.1684 0.6305 0.1369
1100 1 0.0577 0.6739 0.1369
1102 1 0.1684 0.6739 0.1369
690 1 0.2792 0.6739 0.1033
691 1 0.3346 0.6522 0.0865
1087 1 0.3346 0.6087 0.1200
692 1 0.3900 0.6739 0.1033
693 1 0.4454 0.6522 0.0865
709 1 0.3346 0.6957 0.0865
711 1 0.4454 0.6957 0.0865
1089 1 0.4454 0.6087 0.1200
1105 1 0.3346 0.6522 0.1200
1107 1 0.4454 0.6522 0.1200
672 1 0.2792 0.6305 0.1033
1123 1 0.3346 0.6957 0.1200
1125 1 0.4454 0.6957 0.1200
673 1 0.3346 0.6087 0.0865
674 1 0.3900 0.6305 0.1033
675 1 0.4454 0.6087 0.0865
1086 1 0.2792 0.6305 0.1369
1088 1 0.3900 0.6305 0.1369
1104 1 0.2792 0.6739 0.1369
1106 1 0.3900 0.6739 0.1369
715 1 0.6670 0.6957 0.0865
1091 1 0.5562 0.6087 0.1200
1093 1 0.6670 0.6087 0.1200
1109 1 0.5562 0.6522 0.1200
1111 1 0.6670 0.6522 0.1200
1127 1 0.5562 0.6957 0.1200
1129 1 0.6670 0.6957 0.1200
676 1 0.5008 0.6305 0.1033
677 1 0.5562 0.6087 0.0865
678 1 0.6116 0.6305 0.1033
679 1 0.6670 0.6087 0.0865
680 1 0.7224 0.6305 0.1033
694 1 0.5008 0.6739 0.1033
695 1 0.5562 0.6522 0.0865
696 1 0.6116 0.6739 0.1033
697 1 0.6670 0.6522 0.0865
698 1 0.7224 0.6739 0.1033
713 1 0.5562 0.6957 0.0865
1090 1 0.5008 0.6305 0.1369
1092 1 0.6116 0.6305 0.1369
1094 1 0.7224 0.6305 0.1369
1108 1 0.5008 0.6739 0.1369
1110 1 0.6116 0.6739 0.1369
1112 1 0.7224 0.6739 0.1369
681 1 0.7777 0.6087 0.0865
682 1 0.8331 0.6305 0.1033
683 1 0.8885 0.6087 0.0865
684 1 0.9439 0.6305 0.1033
699 1 0.7777 0.6522 0.0865
700 1 0.8331 0.6739 0.1033
701 1 0.8885 0.6522 0.0865
702 1 0.9439 0.6739 0.1033
717 1 0.7777 0.6957 0.0865
719 1 0.8885 0.6957 0.0865
1095 1 0.7777 0.6087 0.1200
1097 1 0.8885 0.6087 0.1200
1113 1 0.7777 0.6522 0.1200
1115 1 0.8885 0.6522 0.1200
1131 1 0.7777 0.6957 0.1200
1133 1 0.8885 0.6957 0.1200
1096 1 0.8331 0.6305 0.1369
1098 1 0.9439 0.6305 0.1369
1114 1 0.8331 0.6739 0.1369
1116 1 0.9439 0.6739 0.1369
704 1 0.0577 0.7174 0.1033
706 1 0.1684 0.7174 0.1033
721 1 0.0023 0.7392 0.0865
722 1 0.0577 0.7609 0.1033
723 1 0.1130 0.7392 0.0865
724 1 0.1684 0.7609 0.1033
725 1 0.2238 0.7392 0.0865
739 1 0.0023 0.7826 0.0865
741 1 0.1130 0.7826 0.0865
743 1 0.2238 0.7826 0.0865
1153 1 0.0023 0.7826 0.1200
1155 1 0.1130 0.7826 0.1200
1157 1 0.2238 0.7826 0.1200
1135 1 0.0023 0.7392 0.1200
1137 1 0.1130 0.7392 0.1200
1139 1 0.2238 0.7392 0.1200
1118 1 0.0577 0.7174 0.1369
1120 1 0.1684 0.7174 0.1369
1136 1 0.0577 0.7609 0.1369
1138 1 0.1684 0.7609 0.1369
708 1 0.2792 0.7174 0.1033
710 1 0.3900 0.7174 0.1033
726 1 0.2792 0.7609 0.1033
727 1 0.3346 0.7392 0.0865
728 1 0.3900 0.7609 0.1033
729 1 0.4454 0.7392 0.0865
745 1 0.3346 0.7826 0.0865
747 1 0.4454 0.7826 0.0865
1159 1 0.3346 0.7826 0.1200
1161 1 0.4454 0.7826 0.1200
1141 1 0.3346 0.7392 0.1200
1143 1 0.4454 0.7392 0.1200
1122 1 0.2792 0.7174 0.1369
1124 1 0.3900 0.7174 0.1369
1140 1 0.2792 0.7609 0.1369
1142 1 0.3900 0.7609 0.1369
732 1 0.6116 0.7609 0.1033
733 1 0.6670 0.7392 0.0865
734 1 0.7224 0.7609 0.1033
749 1 0.5562 0.7826 0.0865
751 1 0.6670 0.7826 0.0865
1163 1 0.5562 0.7826 0.1200
1165 1 0.6670 0.7826 0.1200
1145 1 0.5562 0.7392 0.1200
1147 1 0.6670 0.7392 0.1200
712 1 0.5008 0.7174 0.1033
714 1 0.6116 0.7174 0.1033
716 1 0.7224 0.7174 0.1033
730 1 0.5008 0.7609 0.1033
731 1 0.5562 0.7392 0.0865
1126 1 0.5008 0.7174 0.1369
1128 1 0.6116 0.7174 0.1369
1130 1 0.7224 0.7174 0.1369
1144 1 0.5008 0.7609 0.1369
1146 1 0.6116 0.7609 0.1369
1148 1 0.7224 0.7609 0.1369
718 1 0.8331 0.7174 0.1033
720 1 0.9439 0.7174 0.1033
735 1 0.7777 0.7392 0.0865
736 1 0.8331 0.7609 0.1033
737 1 0.8885 0.7392 0.0865
738 1 0.9439 0.7609 0.1033
753 1 0.7777 0.7826 0.0865
755 1 0.8885 0.7826 0.0865
1167 1 0.7777 0.7826 0.1200
1169 1 0.8885 0.7826 0.1200
1149 1 0.7777 0.7392 0.1200
1151 1 0.8885 0.7392 0.1200
1132 1 0.8331 0.7174 0.1369
1134 1 0.9439 0.7174 0.1369
1150 1 0.8331 0.7609 0.1369
1152 1 0.9439 0.7609 0.1369
1189 1 0.0023 0.8696 0.1200
1191 1 0.1130 0.8696 0.1200
1193 1 0.2238 0.8696 0.1200
740 1 0.0577 0.8044 0.1033
742 1 0.1684 0.8044 0.1033
757 1 0.0023 0.8261 0.0865
758 1 0.0577 0.8479 0.1033
759 1 0.1130 0.8261 0.0865
760 1 0.1684 0.8479 0.1033
761 1 0.2238 0.8261 0.0865
1171 1 0.0023 0.8261 0.1200
1173 1 0.1130 0.8261 0.1200
1175 1 0.2238 0.8261 0.1200
775 1 0.0023 0.8696 0.0865
776 1 0.0577 0.8913 0.1033
777 1 0.1130 0.8696 0.0865
778 1 0.1684 0.8913 0.1033
779 1 0.2238 0.8696 0.0865
1190 1 0.0577 0.8913 0.1369