# LAMMPS data file written by OVITO Basic 3.8.5

336 atoms
336 bonds
4 atom types
1 bond types

5.0000000e-04 11.4785 xlo xhi
0.001 10.672 ylo yhi
0.0 26.309 zlo zhi

Masses

1 12.0107  # C
2 1.00794  # H
3 14.0067  # N
4 15.9994  # O

Atoms  # full

1 1 4 -0.363697 6.944287 3.21359 3.172327 0 0 0
2 1 4 -0.376791 7.052446 1.141009 2.378296 0 0 0
6 1 4 -0.284989 5.2669 5.754678 1.932147 0 0 0
7 1 3 -0.151758 4.830066 2.051167 2.751753 0 0 0
8 1 3 -0.157473 3.590671 1.920474 0.496499 0 0 0
9 1 3 -0.171058 3.419766 4.122412 1.849319 0 0 0
10 1 3 0.355064 6.364298 2.207307 2.648427 0 0 0
12 1 3 0.310699 4.343113 5.148891 1.235962 0 0 0
13 1 1 1.054945e-04 4.158525 3.409809 2.938582 0 0 0
14 1 1 -0.013573 4.245524 1.183933 1.662861 0 0 0
15 1 1 -0.004281 2.878265 3.212513 0.725936 0 0 0
16 1 2 0.24387 4.979513 4.045864 3.423765 0 0 0
17 1 2 0.257029 3.350513 3.278287 3.693809 0 0 0
18 1 2 0.261679 5.043078 0.401928 1.300426 0 0 0
19 1 2 0.217724 3.518926 0.60949 2.220535 0 0 0
21 1 2 0.267467 1.798483 2.938687 0.87157 0 0 0
24 1 4 -0.373787 11.181836 9.506212 6.472833 -1 0 0
25 1 4 -0.34319 1.287483 8.769851 5.033447 0 0 0
26 1 4 -0.311917 2.384542 5.812951 5.559647 0 0 0
32 1 3 0.364279 0.883857 9.106265 6.233563 0 0 0
43 1 4 -0.368169 4.433314 9.550118 3.582519 0 0 0
44 1 4 -0.354617 4.004239 7.358493 3.670051 0 0 0
48 1 4 -0.272805 6.742073 0.63404 5.793465 0 1 0
49 1 3 -0.127826 6.348197 8.035799 3.697557 0 0 0
50 1 3 -0.183202 7.351185 6.978434 5.838314 0 0 0
51 1 3 -0.197559 8.039708 9.322959 5.183393 0 0 0
52 1 3 0.348427 4.823811 8.34093 3.702524 0 0 0
54 1 3 0.321995 7.50515 10.37693 6.23463 0 0 0
55 1 1 -0.00455 7.200108 9.260898 3.942351 0 0 0
56 1 1 -0.009199 6.547401 6.843341 4.561803 0 0 0
57 1 1 0.010952 8.411498 8.039577 5.833503 0 0 0
58 1 2 0.265044 6.524662 10.14989 3.842892 0 0 0
59 1 2 0.270231 7.937628 9.283831 3.089125 0 0 0
60 1 2 0.257006 5.608249 6.283476 4.863175 0 0 0
61 1 2 0.233825 7.279125 6.185945 4.029977 0 0 0
63 1 2 0.25295 9.262439 7.559155 5.314018 0 0 0
106 1 4 -0.360587 1.323436 3.160979 3.308614 1 0 0
107 1 4 -0.377543 1.323679 1.381688 4.616447 1 0 0
111 1 4 -0.329867 11.078366 5.627653 4.50455 0 0 0
112 1 3 -0.151528 10.616965 2.127462 3.883714 0 0 0
113 1 3 -0.161727 9.310063 2.058531 6.091796 0 0 0
114 1 3 -0.177244 9.165996 4.158655 4.673413 0 0 0
115 1 3 0.349283 0.664174 2.254525 3.963613 1 0 0
117 1 3 0.339627 10.035967 5.322417 5.219112 0 0 0
118 1 1 0.022068 9.910977 3.425202 3.586606 0 0 0
119 1 1 -0.012812 10.011648 1.310131 4.986726 0 0 0
120 1 1 -0.005466 8.612626 3.371272 5.814375 0 0 0
121 1 2 0.237522 10.608427 4.107627 2.905652 0 0 0
122 1 2 0.255097 9.089457 3.130922 2.868812 0 0 0
123 1 2 0.271399 10.764928 0.633645 5.464499 0 0 0
124 1 2 0.227464 9.194476 0.682155 4.546103 0 0 0
126 1 2 0.266918 7.542551 3.198899 5.769351 0 0 0
130 1 4 -0.345397 4.752421 2.394493 5.252417 0 0 0
131 1 4 -0.288822 3.972705 10.532159 6.256507 0 -1 0
137 1 3 0.328939 4.795328 3.412744 6.009937 0 0 0
148 1 4 -0.344814 10.053177 9.728013 2.71143 -1 0 0
149 1 4 -0.343894 9.782526 7.490147 2.869312 -1 0 0
153 1 4 -0.292447 1.213983 0.650229 0.293198 0 1 0
154 1 3 -0.136922 0.611978 8.281358 2.783334 0 0 0
155 1 3 -0.166153 1.735055 6.810701 0.987104 0 0 0
156 1 3 -0.18934 2.290196 9.295316 1.153546 0 0 0
157 1 3 0.328272 10.53862 8.514939 2.715996 -1 0 0
159 1 3 0.337051 1.788722 10.20347 0.005561 0 0 0
160 1 1 -0.011606 1.455931 9.458437 2.41305 0 0 0
161 1 1 0.012723 1.051297 6.915919 2.303365 0 0 0
162 1 1 0.010864 2.7316 7.938794 0.668481 0 0 0
163 1 2 0.241412 0.792184 10.395256 2.496568 0 0 0
164 1 2 0.260721 2.074521 9.523098 3.356452 0 0 0
165 1 2 0.248745 0.166714 6.165386 2.336473 0 0 0
166 1 2 0.254644 1.766623 6.577476 3.204765 0 0 0
168 1 2 0.254823 3.716373 7.712109 1.197028 0 0 0
234 1 4 -0.38047 11.461975 3.898337 0.704784 0 0 1
235 1 4 -0.339456 10.287563 2.133188 1.354699 0 0 1
242 1 3 0.320263 10.406308 3.165269 0.609157 0 0 1
256 1 4 -0.347105 6.811406 8.650545 1.380979 0 0 1
257 1 4 -0.265287 7.961342 5.82171 1.036571 0 0 1
263 1 3 0.360037 6.407995 9.112267 0.252367 0 0 1
146 1 2 0.27713 3.249639 1.662691 6.268511 0 0 0
41 1 2 0.271271 3.208238 7.662813 6.366902 0 0 0
251 1 2 0.26905 8.699605 1.510621 0.164622 0 0 1
272 1 2 0.267359 8.795304 7.965015 0.396775 0 0 1
129 1 4 -0.408394 5.817486 4.179901 6.049877 0 0 0
110 1 4 -0.364035 9.734142 5.858411 6.320217 0 0 0
45 1 4 -0.397389 5.214108 6.718973 6.93 0 0 0
125 1 2 0.268723 8.706199 4.026252 6.772378 0 0 0
22 1 4 -0.353077 9.774223 6.715471 9.325952 -1 0 0
23 1 4 -0.350575 9.754993 8.953628 9.415295 -1 0 0
27 1 4 -0.312572 1.181406 4.426424 6.932707 0 0 0
28 1 3 -0.137538 0.434123 7.857129 9.284421 0 0 0
29 1 3 -0.180401 1.843906 8.994465 7.430869 0 0 0
30 1 3 -0.178778 2.149354 6.504035 7.847819 0 0 0
31 1 3 0.335814 10.378647 7.846722 9.316744 -1 0 0
33 1 3 0.339979 1.818741 5.520934 6.678751 0 0 0
34 1 1 -0.012941 1.039137 6.535519 8.873483 0 0 0
35 1 1 -0.003368 1.061792 9.108817 8.691264 0 0 0
36 1 1 0.021609 2.747788 7.78246 7.406504 0 0 0
37 1 2 0.245049 0.239821 5.87803 8.469319 0 0 0
38 1 2 0.253311 1.417948 6.047015 9.829351 0 0 0
39 1 2 0.235896 0.238455 9.931583 8.542746 0 0 0
40 1 2 0.230583 1.719941 9.553586 9.488443 0 0 0
42 1 2 0.270171 3.599662 8.158134 8.156125 0 0 0
46 1 4 -0.316587 7.03684 7.02619 8.251511 0 0 0
47 1 4 -0.278812 8.012784 10.372651 7.40455 0 0 0
53 1 3 0.357987 6.457884 6.815066 7.102872 0 0 0
62 1 2 0.267361 8.681849 8.184742 6.911904 0 0 0
64 1 4 -0.358108 1.70879 1.819564 10.450002 1 0 0
65 1 4 -0.377362 1.713575 4.036506 10.594897 1 0 0
69 1 4 -0.304677 10.958509 10.044852 11.965968 0 -1 0
70 1 3 -0.144713 11.026536 3.000557 10.299568 0 0 0
71 1 3 -0.160046 9.608531 3.72299 12.333049 0 0 0
72 1 3 -0.182423 9.464061 1.297011 11.533967 0 0 0
73 1 3 0.351206 1.067418 2.913997 10.552029 1 0 0
75 1 3 0.334523 10.124367 0.235368 12.437588 0 0 0
76 1 1 0.012959 10.421395 1.611492 10.406243 0 0 0
77 1 1 -0.016956 10.314346 4.087021 11.058977 0 0 0
78 1 1 0.004748 8.884803 2.383104 12.384431 0 0 0
79 1 2 0.219726 11.081636 0.720572 10.233417 0 0 0
80 1 2 0.251219 9.80688 1.435473 9.464515 0 0 0
81 1 2 0.234525 10.956258 5.009131 11.091346 0 0 0
82 1 2 0.23946 9.505634 4.30472 10.339013 0 0 0
84 1 2 0.244838 7.803631 2.44377 12.006812 0 0 0
85 1 4 -0.33031 4.1112 6.490403 10.570023 0 0 0
86 1 4 -0.342289 4.080971 8.665856 10.178346 0 0 0
90 1 4 -0.321383 7.039298 4.463432 13.141107 0 0 0
91 1 3 -0.128922 6.285469 7.627891 10.481217 0 0 0
92 1 3 -0.177951 7.536394 9.029307 12.229988 0 0 0
93 1 3 -0.183332 7.957427 6.497205 12.173655 0 0 0
94 1 3 0.325424 4.72736 7.605993 10.489235 0 0 0
97 1 1 -0.010119 6.849007 6.402807 11.149181 0 0 0
98 1 1 0.005986 6.77653 8.957059 10.928032 0 0 0
99 1 1 0.016111 8.41512 7.841534 12.570364 0 0 0
100 1 2 0.266084 6.031178 5.765699 11.592546 0 0 0
101 1 2 0.241952 7.216755 5.762721 10.268877 0 0 0
102 1 2 0.221626 6.075958 9.849854 10.860707 0 0 0
103 1 2 0.241976 7.502751 9.312079 10.155042 0 0 0
105 1 2 0.248255 9.477652 8.026545 12.070424 0 0 0
108 1 4 -0.389148 11.096689 1.376204 7.573158 0 0 0
109 1 4 -0.351502 9.929893 3.150847 8.217276 0 0 0
116 1 3 0.344698 10.124445 2.176632 7.398806 0 0 0
127 1 4 -0.340819 7.225166 1.681216 9.496036 0 0 0
128 1 4 -0.37505 7.344814 3.863777 9.029185 0 0 0
132 1 4 -0.313252 5.023982 9.779374 8.098654 0 -1 0
133 1 3 -0.151718 5.114406 2.938081 9.388499 0 0 0
134 1 3 -0.154474 3.822355 3.487055 7.20227 0 0 0
135 1 3 -0.178074 3.646161 1.138887 8.229649 0 0 0
136 1 3 0.334068 6.637759 2.81301 9.257238 0 0 0
138 1 3 0.333335 4.350088 10.668615 7.460316 0 -1 0
139 1 1 -0.003851 4.483566 1.537572 9.428104 0 0 0
140 1 1 -0.010702 4.60283 3.964365 8.418193 0 0 0
141 1 1 -0.005867 3.091169 2.170272 7.27382 0 0 0
142 1 2 0.233933 5.308734 0.868546 9.718458 0 0 0
143 1 2 0.259656 3.764836 1.561513 10.292808 0 0 0
144 1 2 0.254983 5.386525 4.753576 8.102602 0 0 0
145 1 2 0.242434 3.88036 4.495614 9.075256 0 0 0
147 1 2 0.247753 1.956056 2.261062 7.377582 0 0 0
171 1 4 -0.377583 5.511896 1.733962 12.068778 0 0 0
172 1 4 -0.321372 4.58338 3.705366 11.603858 0 0 0
179 1 3 0.333596 4.597699 2.612265 12.278687 0 0 0
318 1 4 -0.392176 11.260797 6.858198 12.577309 -1 0 0
319 1 4 -0.322745 1.590418 7.548706 11.385269 0 0 0
320 1 4 -0.284372 2.328438 10.612972 12.460709 0 0 0
326 1 3 0.347816 1.02783 7.150055 12.478068 0 0 0
188 1 2 0.262386 2.99386 4.446705 12.92757 0 0 0
335 1 2 0.265482 3.249198 8.523136 12.819814 0 0 0
87 1 4 -0.388832 5.359876 9.700909 13.043964 0 0 0
96 1 3 0.340226 7.731059 5.518277 13.33857 0 0 0
173 1 4 -0.339292 4.417068 5.941961 13.471208 0 0 0
83 1 2 0.259902 8.699577 2.00109 13.452061 0 0 0
104 1 2 0.250363 8.757459 7.997194 13.650063 0 0 0
66 1 4 -0.389323 0.147151 4.504313 13.424373 1 0 0
67 1 4 -0.332547 10.605977 2.728624 14.342193 0 0 0
68 1 4 -0.281468 9.647724 0.130327 13.618921 0 0 0
74 1 3 0.344132 10.620239 3.709641 13.51144 0 0 0
88 1 4 -0.341272 6.881162 9.01434 14.583414 0 0 0
89 1 4 -0.30249 8.280397 5.772696 14.47117 0 0 0
95 1 3 0.359392 6.541912 9.287596 13.386945 0 0 0
169 1 4 -0.336474 6.943961 3.193173 16.481665 0 0 0
170 1 4 -0.365385 7.021041 1.415873 15.082465 0 0 0
174 1 4 -0.35339 5.464461 5.946252 15.439212 0 0 0
175 1 3 -0.14084 4.834174 2.203788 15.788057 0 0 0
176 1 3 -0.151554 3.626593 2.370857 13.460157 0 0 0
177 1 3 -0.193818 3.583538 4.341084 15.078684 0 0 0
178 1 3 0.339118 6.365927 2.339066 15.7142 0 0 0
180 1 3 0.342146 4.536007 5.452189 14.665069 0 0 0
181 1 1 0.007387 4.202783 3.481758 16.159726 0 0 0
182 1 1 -0.007093 4.301271 1.541307 14.500484 0 0 0
183 1 1 0.006241 3.011508 3.691413 13.80904 0 0 0
184 1 2 0.239243 4.846898 4.090952 16.826958 0 0 0
185 1 2 0.243543 3.294256 3.155289 16.835522 0 0 0
186 1 2 0.277417 5.053293 0.823643 14.023903 0 0 0
187 1 2 0.233204 3.437389 0.920881 14.93227 0 0 0
189 1 2 0.25887 1.87222 3.572497 14.011153 0 0 0
193 1 4 -0.356265 0.862822 8.696248 18.304054 0 0 0
194 1 4 -0.281523 2.124056 5.78841 18.852611 0 0 0
200 1 3 0.349406 0.571223 9.04694 19.509111 0 0 0
211 1 4 -0.320265 4.543468 9.993505 16.974273 0 0 0
212 1 4 -0.361916 4.037072 7.812811 16.910988 0 0 0
216 1 4 -0.305473 6.990468 0.483392 19.668718 0 1 0
217 1 3 -0.138719 6.408486 8.374758 16.929396 0 0 0
218 1 3 -0.161234 7.377083 6.806429 18.754847 0 0 0
219 1 3 -0.202214 8.094531 9.270253 18.652583 0 0 0
220 1 3 0.330437 4.918848 8.759965 16.918112 0 0 0
222 1 3 0.357124 7.538928 10.00598 19.884851 0 0 0
223 1 1 -0.006267 7.266948 9.524617 17.415801 0 0 0
224 1 1 -0.006729 6.669231 6.971836 17.410454 0 0 0
225 1 1 0.009099 8.439077 7.82743 18.977752 0 0 0
226 1 2 0.249828 6.638866 10.535921 17.42377 0 0 0
227 1 2 0.240214 7.98441 9.706196 16.540009 0 0 0
228 1 2 0.26711 5.734047 6.368643 17.425654 0 0 0
229 1 2 0.264807 7.394504 6.685082 16.619341 0 0 0
231 1 2 0.248281 9.393923 7.756436 18.366044 0 0 0
274 1 4 -0.352701 1.106149 3.311145 16.359639 1 0 0
275 1 4 -0.387019 1.401302 1.292781 17.220922 1 0 0
279 1 4 -0.283447 10.905456 5.618719 17.914349 0 0 0
280 1 3 -0.168465 10.548591 2.008702 16.886477 0 0 0
281 1 3 -0.175624 9.50935 1.728564 19.240752 0 0 0
282 1 3 -0.14389 9.147043 3.9445 17.987181 0 0 0
283 1 3 0.352096 0.588134 2.246463 16.925415 1 0 0
285 1 3 0.320068 9.938014 5.104423 18.578719 0 0 0
286 1 1 -8.784329e-04 9.853349 3.33153 16.806417 0 0 0
287 1 1 -0.003501 10.159005 1.102047 18.017578 0 0 0
288 1 1 -0.007403 8.700017 2.963752 19.111586 0 0 0
289 1 2 0.247876 10.493482 4.064262 16.312337 0 0 0
290 1 2 0.251575 9.11761 3.08459 16.024228 0 0 0
291 1 2 0.255702 11.02695 0.421247 18.186216 0 0 0
292 1 2 0.20839 9.335086 0.454029 17.576293 0 0 0
294 1 2 0.266705 7.668375 2.648352 18.907565 0 0 0
297 1 4 -0.364625 5.942099 3.799184 18.86105 0 0 0
298 1 4 -0.317819 4.875136 1.937245 18.272289 0 0 0
305 1 3 0.304797 4.960474 2.978869 19.009183 0 0 0
316 1 4 -0.379644 10.255323 9.477053 16.217081 -1 0 0
317 1 4 -0.348484 9.746427 7.354746 15.825204 -1 0 0
321 1 4 -0.268751 1.06094 0.783184 14.146044 0 1 0
322 1 3 -0.147677 0.640423 7.971697 15.899901 0 0 0
323 1 3 -0.17035 1.91276 7.088031 13.754906 0 0 0
324 1 3 -0.20121 2.329178 9.453626 14.575324 0 0 0
325 1 3 0.34323 10.623038 8.279173 15.927249 -1 0 0
327 1 3 0.324719 1.757235 10.520242 13.606079 0 0 0
328 1 1 0.005822 1.469222 9.201027 15.776615 0 0 0
329 1 1 -0.01729 1.022943 6.847462 14.924152 0 0 0
330 1 1 0.013079 2.873946 8.240749 13.841504 0 0 0
331 1 2 0.259138 0.899107 10.146864 15.973893 0 0 0
332 1 2 0.262379 2.148823 9.127451 16.646638 0 0 0
333 1 2 0.264396 0.0067 6.546413 14.503561 0 0 0
334 1 2 0.227613 1.381536 6.014373 15.561821 0 0 0
336 1 2 0.248823 3.807411 7.898904 14.426997 0 0 0
209 1 2 0.263472 2.980148 7.803489 19.28372 0 0 0
314 1 2 0.267182 3.173295 1.376591 19.425468 0 0 0
213 1 4 -0.384151 5.172097 6.465613 19.659336 0 0 0
192 1 4 -0.362433 10.86215 9.321173 19.875881 -1 0 0
236 1 4 -0.30604 9.795323 10.335215 26.14203 0 -1 0
150 1 4 -0.360516 11.001858 6.469161 0.120156 -1 0 0
299 1 4 -0.306402 4.17038 10.376169 19.897017 0 -1 0
276 1 4 -0.380574 0.194713 1.239142 20.270994 1 0 0
255 1 4 -0.382292 5.178081 9.316596 26.278803 0 0 0
230 1 2 0.269841 8.779564 7.754597 20.055647 0 0 0
293 1 2 0.264463 8.701101 3.502765 20.124147 0 0 0
3 1 4 -0.373402 5.694724 1.333946 25.699075 0 0 -1
4 1 4 -0.306609 4.622593 3.127584 24.97043 0 0 -1
5 1 4 -0.282433 4.157336 5.521143 0.014555 0 0 0
11 1 3 0.320387 4.668281 2.079471 25.705096 0 0 -1
20 1 2 0.263445 2.841165 3.860392 26.133686 0 0 -1
151 1 4 -0.360513 1.119031 6.927675 24.901769 0 0 -1
152 1 4 -0.28916 2.151562 9.94749 25.091655 0 0 -1
158 1 3 0.354487 0.737111 6.66056 26.109495 0 0 -1
167 1 2 0.263201 2.971653 8.01156 25.844675 0 0 -1
190 1 4 -0.36407 10.358257 6.431091 22.70643 -1 0 0
191 1 4 -0.328912 9.943073 8.633192 22.717983 -1 0 0
195 1 4 -0.277257 1.018907 4.737408 20.520572 0 0 0
196 1 3 -0.12657 0.804625 8.011656 22.687923 0 0 0
197 1 3 -0.166889 1.741856 9.098192 20.547642 0 0 0
198 1 3 -0.204733 2.366167 6.718034 21.029623 0 0 0
199 1 3 0.341361 10.78609 7.640214 22.63168 -1 0 0
201 1 3 0.324509 1.745953 5.710314 20.061517 0 0 0
202 1 1 0.005641 1.604813 6.794734 22.332724 0 0 0
203 1 1 -0.00661 1.124498 9.271066 21.927253 0 0 0
204 1 1 0.014364 2.749889 8.032347 20.387412 0 0 0
205 1 2 0.257963 1.014228 5.813806 22.490217 0 0 0
206 1 2 0.262913 2.3899 6.715978 23.17 0 0 0
207 1 2 0.257347 0.17274 9.888165 21.814258 0 0 0
208 1 2 0.246065 1.970536 9.736693 22.552139 0 0 0
210 1 2 0.253816 3.73212 8.284058 20.826769 0 0 0
214 1 4 -0.353252 6.818418 6.810403 21.144466 0 0 0
215 1 4 -0.300795 7.885296 9.599263 21.040456 0 0 0
221 1 3 0.361992 6.402706 6.723553 19.94334 0 0 0
232 1 4 -0.372849 1.358448 1.99311 23.212133 1 0 0
233 1 4 -0.380363 1.424337 4.035412 24.038063 1 0 0
237 1 4 -0.28816 11.064159 10.243437 24.31602 0 -1 0
238 1 3 -0.152985 10.680723 3.210342 23.511534 0 0 0
239 1 3 -0.173556 9.406179 3.403911 25.779552 0 0 0
240 1 3 -0.17791 9.186254 1.256178 24.403076 0 0 0
241 1 3 0.352799 0.728275 3.026492 23.656409 1 0 0
243 1 3 0.3201 10.086488 0.109819 24.97401 0 0 0
244 1 1 0.001298 9.98705 1.894423 23.296792 0 0 0
245 1 1 -0.011658 10.113941 4.057787 24.614229 0 0 0
246 1 1 -0.001014 8.664946 2.120917 25.487696 0 0 0
247 1 2 0.234733 10.726146 1.234508 22.763929 0 0 0
248 1 2 0.240089 9.155492 2.130581 22.54199 0 0 0
249 1 2 0.266191 10.867126 4.801969 24.993498 0 0 0
250 1 2 0.21802 9.319715 4.637749 24.078233 0 0 0
252 1 2 0.266682 7.617757 2.463635 25.255976 0 0 0
253 1 4 -0.34557 4.700494 6.113096 23.352764 0 0 0
254 1 4 -0.355295 4.110535 8.243351 23.293494 0 0 0
258 1 4 -0.306372 6.975443 4.648366 25.68244 0 0 0
259 1 3 -0.133976 6.486317 7.791989 23.446549 0 0 0
260 1 3 -0.161339 7.426317 9.143024 25.432946 0 0 0
261 1 3 -0.200617 8.16966 6.667574 25.077081 0 0 0
262 1 3 0.350428 5.025398 7.350937 23.417317 0 0 0
264 1 3 0.349237 7.576634 5.671324 26.120149 0 0 0
265 1 1 -0.008225 7.408803 6.675976 23.783931 0 0 0
266 1 1 0.001308 6.751619 9.15618 24.078823 0 0 0
267 1 1 0.012577 8.485107 8.028707 25.619666 0 0 0
268 1 2 0.257123 6.828444 5.723626 23.641119 0 0 0
269 1 2 0.256587 8.118464 6.623225 22.914037 0 0 0
270 1 2 0.255906 5.762331 9.817749 24.132938 0 0 0
271 1 2 0.249588 7.472546 9.664181 23.375808 0 0 0
273 1 2 0.250369 9.428759 8.260023 25.04398 0 0 0
277 1 4 -0.318503 10.574654 3.0289 21.017247 0 0 0
278 1 4 -0.285505 9.688736 5.491866 19.783538 0 0 0
284 1 3 0.309186 10.613106 1.958385 20.30106 0 0 0
295 1 4 -0.35127 6.825973 1.938796 22.90958 0 0 0
296 1 4 -0.385573 7.209697 3.927564 22.016878 0 0 0
300 1 4 -0.315314 5.120203 10.232653 21.889084 0 -1 0
301 1 3 -0.140462 4.871965 3.303767 22.456529 0 0 0
302 1 3 -0.176672 3.893499 3.371743 20.04871 0 0 0
303 1 3 -0.178523 3.417194 1.330286 21.521091 0 0 0
304 1 3 0.347241 6.375086 3.058735 22.471715 0 0 0
306 1 3 0.314052 4.281364 0.152536 21.117537 0 0 0
307 1 1 -0.004528 4.043775 2.034428 22.67196 0 0 0
308 1 1 -0.014248 4.454429 4.097792 21.2408 0 0 0
309 1 1 -0.014175 3.056765 2.129801 20.24536 0 0 0
310 1 2 0.240455 4.654747 1.319337 23.247113 0 0 0
311 1 2 0.271818 3.168993 2.350077 23.286661 0 0 0
312 1 2 0.272304 5.255347 4.750689 20.867494 0 0 0
313 1 2 0.224022 3.603175 4.728013 21.578147 0 0 0
315 1 2 0.259393 1.971064 2.420133 20.285847 0 0 0

Velocities

1 0.002234 -0.007242 0.001973
2 -0.00197 -1.2312e-04 -0.001281
6 -0.004871 -0.001686 9.430043e-04
7 -9.831027e-04 0.001708 0.003064
8 -0.002978 -0.005834 -0.008655
9 7.643389e-04 0.002319 0.002546
10 -0.005573 -8.015713e-06 -0.002918
12 -0.002003 0.009578 0.005354
13 -0.004075 0.00285 0.007431
14 0.003146 0.003939 -0.004612
15 0.003032 0.001786 -8.335986e-04
16 -0.038736 -2.058813e-04 -0.007626
17 0.011502 0.027236 0.013571
18 0.002422 0.020459 -0.028968
19 -0.009585 -0.025156 0.020603
21 -0.014523 -0.015316 -0.021023
24 0.001197 -0.00318 -0.002516
25 0.002157 0.001159 0.004677
26 9.946109e-04 0.003257 -0.001262
32 8.19389e-04 -8.323743e-04 -0.00558
43 1.943732e-05 9.051477e-04 -0.003384
44 9.241657e-04 0.001102 -0.001142
48 0.002847 0.001878 0.001095
49 1.295266e-04 0.002199 -0.007314
50 -0.005073 0.002183 0.008404
51 0.006757 0.00132 -0.003883
52 0.002919 0.006225 0.002562
54 0.005526 -0.001268 -0.001557
55 -1.1755e-04 0.001901 0.003415
56 8.707801e-04 -0.001178 1.364871e-04
57 -0.003944 0.003135 0.006566
58 6.924907e-04 -0.002129 -0.00383
59 0.003406 0.017709 0.003959
60 -0.012975 0.001028 -0.008695
61 -0.003394 0.016293 -1.464667e-04
63 9.676644e-05 -0.020924 0.015608
106 0.002237 -0.005087 -0.004141
107 -2.076329e-04 -7.723414e-04 0.005142
111 0.00716 -3.582774e-04 -0.007951
112 -1.583024e-04 0.00117 0.001373
113 -0.00349 6.544943e-05 -0.005169
114 -5.895658e-04 -0.00369 0.006771
115 5.964137e-04 -0.004125 -3.618493e-04
117 -0.001426 0.004146 -0.010138
118 -0.006117 0.005622 0.001407
119 -0.005635 0.006923 0.0031
120 0.001937 0.001781 -0.007823
121 0.005068 0.01389 -0.004044
122 0.013357 0.010499 -0.014772
123 0.002184 0.016465 0.02339
124 0.010802 -0.03628 0.01066
126 0.002101 -0.013801 0.012099
130 5.172711e-04 -0.005902 0.003066
131 0.004357 3.37727e-04 0.00174
137 0.002263 -0.004564 -0.00663
148 0.003016 0.005484 -8.722806e-04
149 0.006774 0.003667 0.002534
153 0.003891 0.006927 -0.003351
154 -0.002857 0.005273 0.002476
155 -0.001379 -0.003848 0.00208
156 0.001812 -0.00224 0.004126
157 -7.47322e-06 0.007137 -0.003295
159 8.549435e-05 -3.763208e-04 -0.005199
160 -8.777728e-04 0.001848 -0.004403
161 0.002444 -1.677988e-05 0.001875
162 -0.001923 0.00133 -0.006595
163 -0.00963 0.005441 -0.008515
164 -0.012961 0.008825 0.005706
165 0.007134 -0.007832 0.019756
166 0.005847 0.006211 -0.005715
168 -0.011644 -0.018576 0.006056
234 -0.003677 0.002289 8.962591e-04
235 -0.002114 -0.004683 0.007614
242 0.00645 -0.005303 0.010589
256 0.002222 -0.001193 0.004883
257 -0.001782 1.401522e-07 0.002303
263 0.003764 -0.005465 7.274539e-04
146 0.026188 0.004508 -0.00224
41 0.002063 0.002819 0.012055
251 0.011907 0.005822 -0.015156
272 -0.016227 0.004988 0.022936
129 -0.007006 0.003592 -0.00414
110 0.002472 -0.002213 0.005961
45 -0.003556 0.004482 0.00921
125 0.024543 0.022482 0.018074
22 -0.004268 -0.002504 0.003347
23 0.005937 -0.002255 0.001284
27 5.156715e-04 -0.010116 -6.384028e-05
28 0.010913 -0.005979 -9.76904e-04
29 -0.004233 -0.00277 -9.497334e-04
30 0.005599 0.003007 -0.011658
31 -0.002117 0.003318 -9.835188e-04
33 0.004734 -2.754172e-04 -2.060343e-04
34 -0.00412 0.001368 0.003129
35 -0.00162 5.634899e-04 0.006404
36 -0.006323 0.004489 -0.004866
37 0.0148 -0.008606 -0.007323
38 -0.014559 -7.612729e-04 -0.028009
39 0.00212 -0.042073 -0.010224
40 0.018437 -0.014134 0.029439
42 0.011226 -0.00745 -0.03977
46 -0.001124 9.075977e-04 -0.007335
47 -0.00239 -0.006457 -2.629428e-05
53 -0.002717 6.82107e-04 -0.003902
62 -0.008228 3.877816e-04 0.020036
64 0.006563 0.001432 -0.003022
65 -0.010018 8.524294e-04 -2.631302e-04
69 -0.00207 -0.004687 -0.002379
70 0.007439 -0.001981 -0.001104
71 -0.005194 0.010531 4.677488e-04
72 -0.002359 9.766796e-04 0.002669
73 -0.005483 -9.28123e-04 0.002206
75 -0.008332 -0.005009 0.002212
76 0.001432 -0.001715 0.003985
77 -9.795295e-04 2.204326e-04 0.005789
78 0.00174 -0.00766 0.001479
79 0.021559 -0.020104 -0.005478
80 -7.622167e-04 -0.016087 -0.002929
81 -0.015756 0.02064 0.014232
82 0.00998 0.020086 -0.024737
84 0.015703 0.007977 0.022281
85 -0.001176 -7.74284e-04 -0.003598
86 0.015338 -0.004196 0.002949
90 0.004502 -0.004419 -7.665279e-04
91 0.001151 -0.004367 1.846268e-04
92 0.003122 0.001575 -0.006648
93 0.001716 0.003122 -7.964108e-04
94 0.002911 -0.005293 0.0041
97 -0.005338 -0.004025 0.001776
98 0.005326 -0.007558 -0.011809
99 -0.00221 7.284488e-04 -0.001951
100 0.005042 0.004638 0.012167
101 0.00634 0.014313 -0.005953
102 -0.010715 -0.007191 0.003696
103 0.019296 -0.006533 -0.021174
105 0.006984 -0.002945 0.044094
108 -0.005501 0.00181 0.005889
109 0.001239 0.00267 -0.003256
116 0.004432 -7.5355e-04 0.006399
127 0.00425 -0.003515 0.003896
128 -0.005362 0.003188 -0.005365
132 0.001032 -0.008053 0.002166
133 -0.006975 -0.003699 0.002838
134 -0.001925 0.002564 -0.003455
135 -0.006063 0.004272 -0.004625
136 -0.0032 0.002662 5.427262e-05
138 -0.008624 0.001101 0.00463
139 0.003974 -0.002809 0.001037
140 0.001607 -0.002435 -0.003885
141 0.0065 -0.001557 0.006136
142 0.009921 0.022524 0.004466
143 0.019043 0.025851 -0.01492
144 -0.016225 0.013089 -0.022554
145 -0.003033 0.013103 -0.00307
147 -0.010089 -0.009144 -0.031527
171 -0.004893 -9.584833e-04 1.102508e-04
172 0.00145 9.923609e-04 -0.001244
179 -0.003205 -0.005832 0.004399
318 8.415375e-04 0.002604 -0.002949
319 0.002128 0.001436 -0.002122
320 -0.003251 -0.004364 0.004025
326 0.00191 0.005451 0.001444
188 0.004051 -0.020776 0.021717
335 -0.007335 0.028732 0.005649
87 -0.006576 -7.061284e-06 0.010691
96 -7.44433e-04 -0.003781 -0.002747
173 0.003019 -0.001994 -9.170402e-04
83 -0.003963 5.19453e-04 0.036127
104 -0.003684 -0.0014 -0.001671
66 2.153011e-04 2.883647e-04 0.002868
67 -1.686715e-04 9.247662e-04 0.001903
68 0.002833 -0.00105 -0.003419
74 -0.003736 -0.006586 -1.697153e-04
88 0.001113 -0.002638 0.00794
89 9.379716e-04 4.440225e-04 0.001531
95 -0.005422 0.001801 -0.0027
169 0.002486 -0.003032 0.003196
170 -0.004235 0.001197 -0.005566
174 -0.001626 -0.001032 -0.002022
175 3.634641e-04 0.005332 -4.121293e-04
176 0.005338 -0.004503 -0.006928
177 -0.005522 0.005056 0.001447
178 0.003963 -0.001264 -0.002966
180 -0.002177 0.004866 0.003632
181 -0.005442 0.00207 -0.002701
182 -0.003917 0.007249 -0.004838
183 0.013324 4.266949e-04 -8.237924e-04
184 -0.018887 0.022653 0.020697
185 0.013713 0.010194 0.00917
186 6.73712e-04 0.018232 0.013169
187 -0.006767 -0.008299 0.015002
189 0.039102 0.013006 -0.004419
193 0.001653 0.003531 0.005793
194 0.001919 0.005873 -0.001045
200 0.002788 -0.004804 1.811735e-05
211 5.907179e-04 0.004777 0.001813
212 0.005071 0.001599 1.127883e-04
216 0.006397 8.511981e-04 -5.706862e-04
217 -0.001702 8.638636e-04 -0.00436
218 0.00144 -8.228357e-04 -0.005026
219 0.005331 0.002808 -0.002131
220 0.004751 0.004742 0.003597
222 0.004408 -2.082436e-04 -0.004143
223 8.345383e-04 0.006071 -7.823169e-06
224 0.008243 0.002225 0.002105
225 -0.006202 -0.008091 0.004986
226 -0.015097 0.023404 0.032254
227 -0.020129 0.01705 0.002312
228 0.012346 0.011866 -0.019707
229 0.020852 -0.00167 -0.007016
231 -0.007567 -0.027024 0.009271
274 0.006908 -0.003393 -0.005843
275 -0.003943 0.001156 0.001563
279 1.212466e-04 0.003522 8.914668e-04
280 -0.004913 0.004253 -9.227757e-04
281 -0.004494 -0.001796 0.005538
282 -0.005443 0.005491 0.010239
283 -0.002043 0.001247 9.71794e-04
285 -0.011733 -0.001337 -0.009389
286 -0.001758 0.00147 0.00121
287 -0.00212 0.00215 -0.001786
288 0.009037 0.001475 -0.003204
289 0.0217 -0.017898 0.01403
290 0.016575 -0.007463 -0.039126
291 0.010481 -0.027789 -6.518859e-04
292 -0.001358 0.009106 0.027157
294 -0.001969 -0.018417 0.025013
297 -0.004496 0.002133 -0.003627
298 0.004508 -0.002867 -0.001239
305 -0.007826 -0.003532 0.001796
316 -3.933027e-04 0.007686 0.00552
317 0.004163 -0.004661 5.331113e-04
321 0.003576 0.004305 -3.228319e-04
322 -0.007043 0.006749 0.004605
323 -0.001699 -0.004643 -0.003923
324 0.004148 3.567725e-04 -0.003114
325 0.007889 0.003187 -0.003218
327 0.006617 -0.001344 -0.005566
328 -0.001587 0.003808 -0.006246
329 -0.005204 0.006922 0.001968
330 -0.004706 9.145418e-04 -0.00902
331 -0.004129 0.027755 -0.016029
332 0.004273 0.004692 -0.009723
333 -0.011029 -0.022916 -0.00452
334 0.006308 0.025753 -0.012147
336 -0.023752 0.00192 -0.02164
209 -0.015697 -0.012447 0.00359
314 -0.002709 -0.002562 -0.014458
213 -0.003732 0.005149 0.003372
192 -0.001115 -0.008048 -0.003344
236 0.007832 -0.001014 -4.198975e-04
150 -0.007179 0.005652 -0.002594
299 7.92677e-04 0.003848 -2.836131e-05
276 -0.00504 0.001006 0.003591
255 -6.913578e-04 -0.007576 0.005935
230 -0.024384 -0.003986 0.011662
293 0.018256 0.008098 0.007222
3 -0.003401 0.001399 -0.002542
4 0.001179 0.002153 -0.001551
5 0.003244 0.001135 -0.001016
11 -0.001765 -9.649002e-04 -0.002759
20 0.007059 9.416256e-04 -0.016653
151 0.006829 0.00349 -0.001485
152 8.766307e-04 -0.002492 0.003492
158 -0.001986 -0.002245 0.002892
167 -0.018427 -0.003391 -0.003502
190 0.003418 9.104404e-04 0.002595
191 9.817208e-05 -0.003435 0.002611
195 0.002246 -0.003793 0.001049
196 0.004214 -0.007585 0.005239
197 -0.003016 0.00457 -3.062122e-04
198 0.006848 -0.009457 0.00469
199 0.00244 -0.003117 -0.003409
201 -0.002527 8.267449e-04 -0.00412
202 0.004689 -0.007083 -0.009714
203 -0.00307 0.003472 0.005108
204 -0.009478 0.005644 -0.010208
205 -0.033772 -0.001272 0.004559
206 -6.220134e-04 -0.03389 -0.015596
207 -0.011595 -0.007706 0.002286
208 0.022659 -0.008285 -0.003485
210 -0.012243 0.006863 -0.003511
214 0.005863 0.002101 0.006259
215 0.002634 -0.004816 0.010335
221 -0.003406 0.004773 -0.005844
232 0.006205 -0.00311 -0.002234
233 -0.012015 0.002789 0.001999
237 -0.002318 -0.003653 -3.021694e-04
238 7.738373e-04 4.746005e-04 3.862896e-05
239 -0.005869 0.005233 -0.005608
240 -0.003124 -9.28364e-04 -0.00161
241 -4.143265e-04 -0.005209 0.002432
243 -0.01009 -0.001016 -0.004031
244 -0.00592 -0.002052 -0.007652
245 0.001507 -2.451123e-04 0.007463
246 -1.009644e-04 -0.00113 0.00294
247 1.470305e-04 -0.003494 -0.003181
248 -0.018056 -0.003886 -0.034481
249 -0.016632 0.013459 -0.01093
250 0.01056 0.017357 0.02187
252 -0.005583 -0.001471 0.010051
253 0.00685 -0.001403 3.685243e-04
254 -6.233556e-04 -0.001754 5.853417e-04
258 0.002509 -0.002636 0.002909
259 -0.002727 -0.005346 -3.243518e-04
260 3.422406e-04 0.002924 3.539248e-04
261 0.001592 0.001493 0.001956
262 0.002807 -0.009263 -0.002591
264 0.004093 -0.001369 -0.001122
265 -0.00266 -0.004358 -0.004052
266 0.00349 0.002331 -8.394203e-04
267 -0.005261 0.006416 0.009114
268 -0.002448 0.002033 0.046665
269 0.011144 -0.011994 0.027238
270 0.007653 0.013611 -0.018663
271 -0.013976 0.006264 0.005388
273 -0.050142 0.031955 0.01864
277 0.001614 0.006325 -0.00152
278 -9.29043e-04 0.001025 -0.002579
284 0.005618 0.003352 -2.486441e-04
295 8.025083e-04 0.002375 0.003556
296 -0.002608 -3.868147e-04 -0.004952
300 -4.734085e-04 -0.001527 0.00484
301 0.002163 -0.003936 0.007628
302 0.001322 -0.002785 7.777826e-04
303 -0.003935 -0.003262 -0.002088
304 3.080846e-04 -0.005966 0.002976
306 -0.004177 -0.002059 -3.432344e-04
307 -0.009574 -0.002575 0.004629
308 -0.005477 -0.00304 -0.014214
309 0.011396 0.010288 -0.006299
310 0.026537 0.002596 -0.004655
311 -1.753885e-05 -3.848548e-04 0.007721
312 0.005075 -0.005939 -0.021056
313 0.003201 0.009131 -0.010833
315 -0.004443 -0.005674 -0.027791

Bonds

1 1 1 10
2 1 2 10
3 1 6 12
4 1 7 14
5 1 7 13
6 1 7 10
7 1 8 14
8 1 8 15
9 1 8 11
10 1 9 15
11 1 9 13
12 1 9 12
13 1 12 5
14 1 13 17
15 1 13 16
16 1 14 19
17 1 14 18
18 1 15 21
19 1 15 20
20 1 24 32
21 1 25 32
22 1 26 33
23 1 32 29
24 1 43 52
25 1 44 52
26 1 48 54
27 1 49 52
28 1 49 56
29 1 49 55
30 1 50 57
31 1 50 56
32 1 50 53
33 1 51 54
34 1 51 57
35 1 51 55
36 1 54 47
37 1 55 59
38 1 55 58
39 1 56 60
40 1 56 61
41 1 57 62
42 1 57 63
43 1 106 115
44 1 107 115
45 1 111 117
46 1 112 119
47 1 112 118
48 1 112 115
49 1 113 119
50 1 113 120
51 1 113 116
52 1 114 120
53 1 114 118
54 1 114 117
55 1 117 110
56 1 118 121
57 1 118 122
58 1 119 124
59 1 119 123
60 1 120 126