# LAMMPS data file written by reax_tools

140 atoms
146 bonds
3 atom types
1 bond types

0 8.8419 xlo xhi
0 5.1049 ylo yhi
0 31.6993 zlo zhi

Atoms # full

3 1 1 0.0 8.829 4.993 3.881 0 0 0
25 1 2 0.0 1.187 4.443 2.397 0 0 0
8 1 1 0.0 1.436 2.697 2.541 0 0 0
34 1 2 0.0 3.240 1.816 1.773 0 0 0
40 1 2 0.0 1.536 1.091 3.962 0 0 0
9 1 1 0.0 3.090 0.166 3.395 0 0 0
48 1 2 0.0 4.442 1.086 4.815 0 0 0
4 1 1 0.0 4.466 2.714 3.593 0 0 0
29 1 2 0.0 4.328 4.219 1.967 0 0 0
7 1 1 0.0 5.753 0.137 2.174 0 0 0
26 1 2 0.0 6.306 1.928 2.320 0 0 0
43 1 2 0.0 3.253 3.517 4.568 0 0 0
39 1 2 0.0 6.053 3.527 4.424 0 0 0
10 1 1 0.0 7.386 2.291 4.411 0 0 0
44 1 2 0.0 7.348 0.785 4.327 0 0 0
13 1 1 0.0 5.985 5.073 5.624 0 0 0
37 1 2 0.0 4.561 4.257 6.891 0 0 0
16 1 1 0.0 4.065 2.418 6.496 0 0 0
46 1 2 0.0 5.833 1.471 6.968 0 0 0
12 1 1 0.0 7.304 2.490 7.593 0 0 0
38 1 2 0.0 0.098 1.573 6.780 0 0 0
14 1 1 0.0 1.344 2.407 5.297 0 0 0
47 1 2 0.0 8.716 3.542 4.921 0 0 0
42 1 2 0.0 2.638 1.707 6.839 0 0 0
11 1 1 0.0 2.955 4.987 7.815 0 0 0
45 1 2 0.0 1.450 4.066 6.762 0 0 0
15 1 1 0.0 0.058 4.881 6.734 0 0 0
41 1 2 0.0 7.178 4.319 6.960 0 0 0
17 1 1 0.0 5.950 5.056 8.503 0 0 0
52 1 2 0.0 4.294 0.707 9.100 0 0 0
22 1 1 0.0 4.372 2.478 9.456 0 0 0
55 1 2 0.0 6.062 3.286 9.052 0 0 0
24 1 1 0.0 7.388 2.380 10.548 0 0 0
51 1 2 0.0 8.708 3.184 9.066 0 0 0
18 1 1 0.0 1.438 2.541 8.097 0 0 0
56 1 2 0.0 1.648 0.797 9.081 0 0 0
21 1 1 0.0 0.052 0.001 9.527 0 0 0
60 1 2 0.0 7.357 0.967 9.067 0 0 0
58 1 2 0.0 8.765 1.494 11.093 0 0 0
20 1 1 0.0 1.225 2.497 11.551 0 0 0
50 1 2 0.0 2.965 1.878 11.142 0 0 0
23 1 1 0.0 2.929 0.061 10.470 0 0 0
57 1 2 0.0 4.457 4.149 11.212 0 0 0
19 1 1 0.0 5.999 5.070 12.379 0 0 0
49 1 2 0.0 7.474 4.386 11.214 0 0 0
1 1 1 0.0 8.645 0.055 12.316 0 0 0
53 1 2 0.0 1.237 4.222 11.252 0 0 0
28 1 2 0.0 7.391 0.691 13.986 0 0 0
6 1 1 0.0 7.416 2.450 13.325 0 0 0
31 1 2 0.0 8.790 3.617 13.766 0 0 0
35 1 2 0.0 5.596 3.540 13.373 0 0 0
2 1 1 0.0 4.724 2.497 11.834 0 0 0
54 1 2 0.0 5.954 1.645 11.076 0 0 0
32 1 2 0.0 4.439 1.110 13.469 0 0 0
5 1 1 0.0 3.005 0.247 13.394 0 0 0
36 1 2 0.0 1.511 1.211 13.298 0 0 0
59 1 2 0.0 2.881 3.582 9.054 0 0 0
30 2 2 0.0 0.084 2.314 0.280 0 0 0
135 2 3 0.0 8.319 2.504 0.644 0 0 0
129 2 3 0.0 0.552 2.175 31.373 0 0 0
33 3 2 0.0 7.628 5.042 0.598 0 0 0
130 3 3 0.0 8.123 0.799 0.480 0 0 0
136 3 3 0.0 8.203 4.732 1.347 0 0 0
27 4 2 0.0 2.264 2.998 15.854 0 0 0
98 4 3 0.0 2.188 3.370 14.864 0 0 0
97 4 3 0.0 2.080 2.857 16.442 0 0 0
61 5 3 0.0 4.042 1.997 19.352 0 0 0
62 5 3 0.0 4.422 2.649 19.104 0 0 0
65 6 3 0.0 3.076 1.205 17.098 0 0 0
66 6 3 0.0 3.595 0.607 17.540 0 0 0
71 7 3 0.0 8.702 1.592 21.244 0 0 0
72 7 3 0.0 8.786 1.741 21.939 0 0 0
73 8 3 0.0 8.753 0.096 15.778 0 0 0
74 8 3 0.0 0.378 0.280 15.175 0 0 0
83 9 3 0.0 4.491 4.911 16.286 0 0 0
84 9 3 0.0 4.920 4.418 15.878 0 0 0
87 10 3 0.0 2.287 3.059 20.190 0 0 0
88 10 3 0.0 2.744 2.433 20.382 0 0 0
93 11 3 0.0 0.068 4.701 18.619 0 0 0
94 11 3 0.0 8.781 0.287 19.081 0 0 0
63 12 3 0.0 0.857 1.966 23.734 0 0 0
64 12 3 0.0 1.370 1.899 24.257 0 0 0
67 13 3 0.0 7.265 4.984 20.760 0 0 0
68 13 3 0.0 7.673 4.409 20.931 0 0 0
69 14 3 0.0 4.825 3.325 17.873 0 0 0
70 14 3 0.0 4.493 4.088 17.985 0 0 0
75 15 3 0.0 1.946 3.544 18.550 0 0 0
76 15 3 0.0 2.071 2.690 18.770 0 0 0
77 16 3 0.0 5.109 3.306 22.126 0 0 0
78 16 3 0.0 5.375 2.605 22.357 0 0 0
79 17 3 0.0 5.900 0.227 24.578 0 0 0
80 17 3 0.0 5.313 0.221 24.113 0 0 0
81 18 3 0.0 4.655 4.522 31.222 0 0 0
82 18 3 0.0 4.693 0.234 31.013 0 0 0
85 19 3 0.0 1.994 0.145 20.478 0 0 0
86 19 3 0.0 1.828 4.496 20.943 0 0 0
89 20 3 0.0 6.794 3.039 19.116 0 0 0
90 20 3 0.0 6.224 2.380 19.062 0 0 0
91 21 3 0.0 7.129 1.470 17.426 0 0 0
92 21 3 0.0 6.800 0.774 17.761 0 0 0
95 22 3 0.0 4.704 0.780 20.657 0 0 0
96 22 3 0.0 5.030 0.137 20.021 0 0 0
99 23 3 0.0 7.751 4.946 22.329 0 0 0
100 23 3 0.0 6.901 4.939 22.579 0 0 0
114 24 3 0.0 0.336 0.129 23.731 0 0 0
113 24 3 0.0 0.748 4.501 23.744 0 0 0
123 25 3 0.0 2.868 3.301 23.300 0 0 0
124 25 3 0.0 2.531 3.176 22.386 0 0 0
127 26 3 0.0 5.907 1.944 24.618 0 0 0
128 26 3 0.0 5.788 1.517 23.784 0 0 0
138 27 3 0.0 0.185 0.997 27.354 0 0 0
137 27 3 0.0 8.607 0.612 27.208 0 0 0
101 28 3 0.0 3.118 2.697 29.548 0 0 0
102 28 3 0.0 2.903 3.037 28.903 0 0 0
103 29 3 0.0 4.444 2.062 0.030 0 0 0
104 29 3 0.0 4.691 2.618 0.193 0 0 0
105 30 3 0.0 8.794 4.450 28.255 0 0 0
106 30 3 0.0 8.487 3.682 28.415 0 0 0
107 31 3 0.0 7.257 2.535 26.833 0 0 0
108 31 3 0.0 7.343 2.230 26.253 0 0 0
109 32 3 0.0 0.036 2.415 29.926 0 0 0
110 32 3 0.0 8.393 3.245 29.857 0 0 0
111 33 3 0.0 4.563 0.912 22.732 0 0 0
112 33 3 0.0 4.360 0.043 22.491 0 0 0
115 34 3 0.0 6.102 1.370 28.968 0 0 0
116 34 3 0.0 6.453 1.913 28.271 0 0 0
117 35 3 0.0 1.808 3.448 31.595 0 0 0
118 35 3 0.0 2.214 4.234 0.287 0 0 0
119 36 3 0.0 1.713 3.000 25.728 0 0 0
120 36 3 0.0 1.771 2.423 26.297 0 0 0
121 37 3 0.0 2.441 0.566 25.826 0 0 0
122 37 3 0.0 1.980 0.991 25.417 0 0 0
125 38 3 0.0 6.892 1.134 30.949 0 0 0
126 38 3 0.0 6.637 1.605 30.441 0 0 0
131 39 3 0.0 5.437 0.143 27.494 0 0 0
132 39 3 0.0 5.071 0.647 26.956 0 0 0
133 40 3 0.0 5.114 3.388 24.603 0 0 0
134 40 3 0.0 4.662 2.880 24.839 0 0 0
139 41 3 0.0 6.726 4.438 26.018 0 0 0
140 41 3 0.0 7.228 4.863 25.889 0 0 0

Bonds

1 1 3 25
2 1 3 40
3 1 3 44
4 1 3 47
5 1 4 29
6 1 4 43
7 1 4 39
8 1 4 48
9 1 7 29
10 1 7 26
11 1 8 25
12 1 8 34
13 1 8 40
14 1 9 48
15 1 9 29
16 1 9 40
17 1 9 43
18 1 10 39
19 1 10 44
20 1 10 47
21 1 13 39
22 1 13 44
23 1 13 48
24 1 13 37
25 1 13 41
26 1 13 46
27 1 14 47
28 1 14 40
29 1 14 38
30 1 14 42
31 1 14 45
32 1 15 41
33 1 15 38
34 1 15 45
35 1 16 48
36 1 16 37
37 1 16 46
38 1 16 42
39 1 30 135
40 1 30 129
41 1 33 130
42 1 33 136
43 1 11 37
44 1 11 42
45 1 11 45
46 1 11 52
47 1 11 56
48 1 11 59
49 1 12 38
50 1 12 41
51 1 12 46
52 1 12 51
53 1 12 55
54 1 12 60
55 1 17 52
56 1 17 41
57 1 17 46
58 1 17 55
59 1 17 60
60 1 18 51
61 1 18 38
62 1 18 42
63 1 18 45
64 1 18 56
65 1 18 59
66 1 19 49
67 1 19 54
68 1 19 57
69 1 19 35
70 1 20 58
71 1 20 50
72 1 20 53
73 1 20 36
74 1 21 51
75 1 21 60
76 1 21 58
77 1 21 56
78 1 22 55
79 1 22 52
80 1 22 59
81 1 23 57
82 1 23 52
83 1 23 56
84 1 23 59
85 1 23 50
86 1 23 53
87 1 24 51
88 1 24 55
89 1 24 60
90 1 24 49
91 1 24 54
92 1 24 58
93 1 49 1
94 1 50 2
95 1 53 1
96 1 54 2
97 1 57 2
98 1 58 1
99 1 1 28
100 1 1 31
101 1 2 32
102 1 2 35
103 1 5 32
104 1 5 36
105 1 6 28
106 1 6 31
107 1 6 35
108 1 27 98
109 1 27 97
110 1 61 62
111 1 65 66
112 1 71 72
113 1 73 74
114 1 83 84
115 1 87 88
116 1 93 94
117 1 63 64
118 1 67 68
119 1 69 70
120 1 75 76
121 1 77 78
122 1 79 80
123 1 81 82
124 1 85 86
125 1 89 90
126 1 91 92
127 1 95 96
128 1 99 100
129 1 114 113
130 1 123 124
131 1 127 128
132 1 138 137
133 1 101 102
134 1 103 104
135 1 105 106
136 1 107 108
137 1 109 110
138 1 111 112
139 1 115 116
140 1 117 118
141 1 119 120
142 1 121 122
143 1 125 126
144 1 131 132
145 1 133 134
146 1 139 140

