ITEM: TIMESTEP
0
ITEM: NUMBER OF ATOMS
140
ITEM: BOX BOUNDS pp pp pp
0.0 8.8419
0.0 5.1049
0.0 31.6993
ITEM: ATOMS id type x y z
3 1 0.0 0.0 2.99907
4 1 4.42095 2.55245 2.99907
7 1 5.89463 0.0 1.26005
8 1 1.47368 2.55245 1.26005
9 1 2.94727 0.0 3.57885
10 1 7.36822 2.55245 3.57885
13 1 5.89463 0.0 5.31787
14 1 1.47368 2.55245 5.31787
15 1 0.0 0.0 5.89765
16 1 4.42095 2.55245 5.89765
25 2 1.59941 4.32671 2.12956
26 2 6.02036 1.77426 2.12956
29 2 4.29513 4.32671 2.12956
30 2 8.71608 1.77426 2.12956
33 2 7.36822 4.10883 2.12956
34 2 2.94727 1.55638 2.12956
39 2 5.76881 3.33064 4.44836
40 2 1.34786 0.778191 4.44836
43 2 3.07309 3.33064 4.44836
44 2 7.49404 0.778191 4.44836
47 2 0.0 3.54852 4.44836
48 2 4.42095 0.996068 4.44836
11 1 2.94727 0.0 7.63668
12 1 7.36822 2.55245 7.63668
17 1 5.89463 0.0 8.21678
18 1 1.47368 2.55245 8.21678
19 1 5.89463 0.0 12.2746
20 1 1.47368 2.55245 12.2746
21 1 0.0 0.0 9.95548
22 1 4.42095 2.55245 9.95548
23 1 2.94727 0.0 10.5356
24 1 7.36822 2.55245 10.5356
37 2 4.54677 4.32671 6.76717
38 2 0.12582 1.77426 6.76717
41 2 7.24249 4.32671 6.76717
42 2 2.82154 1.77426 6.76717
45 2 1.47368 4.10883 6.76717
46 2 5.89463 1.55638 6.76717
49 2 7.49404 4.32671 11.4051
50 2 3.07309 1.77426 11.4051
51 2 8.71608 3.33064 9.08597
52 2 4.29513 0.778191 9.08597
53 2 1.34786 4.32671 11.4051
54 2 5.76881 1.77426 11.4051
55 2 6.02036 3.33064 9.08597
56 2 1.59941 0.778191 9.08597
57 2 4.42095 4.10883 11.4051
58 2 0.0 1.55638 11.4051
59 2 2.94727 3.54852 9.08597
60 2 7.36822 0.996068 9.08597
1 1 0.0 0.0 12.8544
2 1 4.42095 2.55245 12.8544
5 1 2.94727 0.0 14.5934
6 1 7.36822 2.55245 14.5934
27 2 2.82154 3.33064 13.7239
28 2 7.24249 0.778191 13.7239
31 2 0.12582 3.33064 13.7239
32 2 4.54677 0.778191 13.7239
35 2 5.89463 3.54852 13.7239
36 2 1.47368 0.996068 13.7239
61 3 5.09444 2.6011 18.6737
62 3 4.53775 3.05309 18.4912
65 3 2.9196 0.834192 18.2978
66 3 2.23293 0.656388 18.087
71 3 5.42159 3.35714 18.5526
72 3 4.90151 3.85854 18.713
73 3 5.46102 1.65991 17.6923
74 3 5.25474 1.97116 17.0533
83 3 3.94526 2.41472 17.4289
84 3 3.56859 1.95528 17.8702
87 3 7.12144 2.02072 17.1053
88 3 6.76768 1.57971 17.5827
93 3 3.89353 4.24467 18.6392
97 3 5.69878 3.80044 17.8724
98 3 6.02248 3.36857 17.3658
63 3 4.56605 0.433508 22.2716
64 3 4.34394 1.03272 21.8985
67 3 6.59376 1.99648 20.8705
68 3 6.32364 1.64618 20.2771
69 3 2.66672 3.86089 22.5762
70 3 2.29695 3.37199 22.1616
75 3 5.88932 3.33212 20.6445
76 3 5.47632 3.87972 20.9225
77 3 2.69996 0.924753 19.8143
78 3 3.22685 0.47496 19.554
79 3 3.71935 3.15294 20.9393
80 3 3.10015 3.04012 20.55
81 3 4.97109 4.10322 21.7232
82 3 5.34139 3.15932 22.2504
85 3 2.63329 0.983561 22.0665
86 3 1.953 0.692429 22.0589
89 3 7.29174 0.569656 21.3549
90 3 6.62444 0.679003 21.054
91 3 6.66131 3.90351 20.0958
92 3 6.70331 3.54893 19.4475
94 3 3.73022 3.69513 19.1071
95 3 6.10507 2.92475 20.9963
96 3 6.08022 2.58987 21.6557
99 3 3.97364 1.1121 20.8398
100 3 3.40059 0.731634 21.1127
114 3 5.30151 3.1998 24.9762
123 3 3.99212 3.64342 25.3518
127 3 7.16831 3.24937 25.0282
138 3 6.06926 4.59727 25.2891
101 3 5.1413 3.8298 26.5967
102 3 4.58453 4.28179 26.4141
103 3 4.61291 1.66216 30.1945
104 3 4.3908 2.26142 29.8218
105 3 2.96646 2.06289 26.221
106 3 2.2798 1.88509 26.0099
107 3 6.64062 3.22517 28.7934
108 3 6.3705 2.87488 28.2
109 3 2.71358 5.08953 30.4992
110 3 2.34381 4.60069 30.0849
111 3 5.46845 4.58583 26.4756
112 3 4.94837 5.08724 26.636
113 3 5.50788 2.88856 25.6153
115 3 5.93619 4.56082 28.5677
116 3 5.52318 0.00352238 28.8454
117 3 2.74682 2.1534 27.7372
118 3 3.27363 1.70361 27.477
119 3 3.76621 4.38164 28.8622
120 3 3.14701 4.26882 28.4729
121 3 5.01796 0.226964 29.6461
122 3 5.38825 4.38802 30.1733
124 3 3.61545 3.18393 25.7931
125 3 2.68007 2.21221 29.9894
126 3 1.99977 1.92113 29.9818
128 3 6.81454 2.80836 25.5056
129 3 7.3386 1.79835 29.2778
130 3 6.6713 1.90765 28.9773
131 3 6.70817 0.0273112 28.0187
132 3 6.75017 4.77757 27.3704
133 3 3.94039 0.368421 26.5621
134 3 3.77708 4.92378 27.03
135 3 6.15193 4.15345 28.9193
136 3 6.12708 3.81857 29.5786
137 3 5.74564 5.02909 25.7953
139 3 4.0205 2.34075 28.763
140 3 3.44746 1.96033 29.0356
ITEM: TIMESTEP
100
ITEM: NUMBER OF ATOMS
140
ITEM: BOX BOUNDS pp pp pp
0.0 8.8419
0.0 5.1049
0.0 31.6993
ITEM: ATOMS id type x y z
3 1 8.83544 5.10478 2.99597
4 1 4.42416 2.5513 3.00795
7 1 5.91674 5.10038 1.33814
8 1 1.46053 2.55699 1.33421
9 1 2.94778 1.06189e-04 3.57388
10 1 7.36753 2.55214 3.57435
13 1 5.89459 3.65645e-05 5.28388
14 1 1.47371 2.55245 5.28379
15 1 5.14853e-05 1.91473e-05 5.9307
16 1 4.42097 2.55244 5.93087
25 2 1.52098 4.3977 2.06331
26 2 5.94069 1.81876 2.04135
29 2 4.29102 4.23745 2.05216
30 2 8.69524 1.67105 2.06066
33 2 7.44714 4.15178 2.04381
34 2 3.05524 1.59235 2.05276
39 2 5.79532 3.345 4.44965
40 2 1.37456 0.792689 4.44984
43 2 3.04784 3.34648 4.44904
44 2 7.46784 0.793667 4.45029
47 2 8.84062 3.51845 4.44956
48 2 4.42045 0.965666 4.44968
11 1 2.94737 5.1049 7.60325
12 1 7.36812 2.5525 7.60338
17 1 5.89456 5.10489 8.25013
18 1 1.47373 2.55244 8.25007
19 1 5.89134 4.15127e-04 12.2784
20 1 1.47707 2.55225 12.2806
21 1 6.4565e-06 5.10489 9.9221
22 1 4.42087 2.55244 9.92235
23 1 2.94728 1.9436e-05 10.5698
24 1 7.36818 2.55243 10.5695
37 2 4.52179 4.31183 6.76996
38 2 0.100737 1.75925 6.77049
41 2 7.26812 4.31252 6.77004
42 2 2.84674 1.75996 6.77027
45 2 1.47307 4.13798 6.77039
46 2 5.89446 1.58538 6.77007
49 2 7.46735 4.31112 11.4028
50 2 3.0464 1.7603 11.4041
51 2 8.74134 3.3455 9.08302
52 2 4.32005 0.793078 9.08332
53 2 1.37478 4.31134 11.4016
54 2 5.79405 1.75816 11.405
55 2 5.99505 3.34487 9.08337
56 2 1.57387 0.792413 9.08293
57 2 4.42051 4.13932 11.4027
58 2 0.00165611 1.58695 11.4038
59 2 2.94742 3.51942 9.08309
60 2 7.36886 0.966959 9.08317
1 1 0.0172789 5.23571e-04 12.8522
2 1 4.40382 2.55223 12.8623
5 1 2.93705 5.09812 14.4981
6 1 7.38137 2.54506 14.53
27 2 2.90712 3.30212 13.8086
28 2 7.32074 0.690956 13.7623
31 2 0.164635 3.44604 13.7752
32 2 4.52953 0.868902 13.8141
35 2 5.77426 3.52662 13.7863
36 2 1.40922 0.941252 13.8113
61 3 4.77776 2.02088 19.5509
62 3 4.17754 1.68563 18.8049
65 3 1.61838 0.128035 16.797
66 3 1.10896 0.35851 17.2426
71 3 7.33932 0.460565 17.6616
72 3 6.8065 0.0241525 17.145
73 3 5.52861 0.571351 15.6665
74 3 4.9881 0.328412 16.3454
83 3 1.7935 2.92742 15.324
84 3 1.64435 2.34253 15.6099
87 3 8.77868 0.957165 16.9759
88 3 8.77513 1.23773 17.7131
93 3 2.12926 3.08516 18.1688
97 3 7.75315 0.534553 15.4367
98 3 7.01643 0.269641 15.4639
63 3 5.21294 0.938514 23.1096
64 3 5.36444 0.287366 23.4709
67 3 7.22063 2.23568 19.3659
68 3 7.88325 2.21773 19.6127
69 3 1.3824 3.91528 22.0628
70 3 1.10487 3.28666 22.4095
75 3 4.61827 3.87471 19.3086
76 3 3.89836 4.09576 19.5132
77 3 1.09886 2.14522 20.8982
78 3 0.190347 2.01335 20.9442
79 3 2.77101 2.49948 21.2808
80 3 2.50971 2.90235 20.7252
81 3 3.63361 4.41505 23.1732
82 3 3.48094 5.01718 24.0186
85 3 1.10449 1.01818 23.1019
86 3 1.86792 1.22907 22.9545
89 3 6.99778 3.69003 22.2492
90 3 7.75482 3.87618 22.4677
91 3 1.65302 4.44375 20.4342
92 3 1.00967 4.79158 19.9557
94 3 2.21017 3.36403 17.4734
95 3 6.96455 2.37341 22.7259
96 3 6.82786 1.75814 23.3671
99 3 4.64137 0.591185 21.5678
100 3 4.10841 0.87897 21.8549
114 3 4.37927 2.83736 24.953
123 3 1.95247 4.07966 24.0491
127 3 8.41083 2.50193 24.724
138 3 0.126691 4.27179 24.5072
101 3 4.85801 3.38433 27.5625
102 3 4.23997 2.96779 26.8595
103 3 5.11727 3.17676 0.629177
104 3 4.54883 2.84535 0.340342
105 3 1.70627 1.3323 24.4902
106 3 1.27523 1.59341 25.0564
107 3 7.48664 3.38854 26.5977
108 3 8.11367 3.11533 26.2335
109 3 1.53356 4.93128 31.1373
110 3 1.22263 4.5295 30.5505
111 3 7.46308 1.46718 25.6052
112 3 6.87334 1.24355 25.0321
113 3 5.15395 3.14926 25.4953
115 3 4.69899 5.08764 27.2642
116 3 3.99327 0.243537 27.4626
117 3 1.04148 3.39425 28.6192
118 3 0.150657 3.3163 28.5471
119 3 2.84966 3.82513 29.2256
120 3 2.56641 4.16965 28.6515
121 3 3.7372 0.816199 31.5133
122 3 2.87111 1.0988 31.1707
124 3 2.01162 3.51011 23.8113
125 3 2.11763 2.2758 29.5482
126 3 1.94474 2.08059 30.2318
128 3 0.232161 2.87653 24.9125
129 3 7.04859 4.93062 30.2016
130 3 7.80129 0.0109543 30.4284
131 3 1.70278 0.56073 28.3993
132 3 1.06693 0.902837 27.9242
133 3 2.1764 4.31793 26.097
134 3 2.2689 4.62107 25.4312
135 3 8.4405 1.47395 1.07244
136 3 6.98188 1.7274 1.49289
137 3 7.87558 4.46408 24.8958
139 3 4.7507 1.86974 29.5125
140 3 4.16421 2.15127 29.7813
ITEM: TIMESTEP
200
ITEM: NUMBER OF ATOMS
140
ITEM: BOX BOUNDS pp pp pp
0.0 8.8419
0.0 5.1049
0.0 31.6993
ITEM: ATOMS id type x y z
3 1 0.0116419 5.08006 3.16295
4 1 4.33842 2.59973 3.09882
7 1 5.94039 0.019845 1.46185
8 1 1.45373 2.67715 1.51167
9 1 2.93743 5.10263 3.54047
10 1 7.40401 2.63066 3.60531
13 1 5.90796 4.99726 5.30668
14 1 1.47445 2.55291 5.21485
15 1 8.84149 4.59799e-04 6.00746
16 1 4.40739 2.56975 6.04222
25 2 1.48901 4.54659 1.89505
26 2 6.00006 1.8514 1.7835
29 2 4.18511 4.15231 1.98955
30 2 8.76301 1.39777 1.65961
33 2 7.59456 4.1534 1.8278
34 2 3.23666 1.61627 1.95145
39 2 5.83554 3.33985 4.43742
40 2 1.40468 0.79662 4.47081
43 2 3.00833 3.36774 4.43277
44 2 7.46641 0.78631 4.45784
47 2 0.00164798 3.4638 4.41984
48 2 4.47051 0.949828 4.44316
11 1 2.94645 5.10412 7.53406
12 1 7.36882 2.55287 7.53573
17 1 5.89483 5.24517e-04 8.32018
18 1 1.47375 2.55225 8.31883
19 1 5.88031 0.00493112 12.3072
20 1 1.48925 2.55302 12.2339
21 1 5.61068e-04 1.32647e-04 9.84146
22 1 4.42037 2.55189 9.84639
23 1 2.94777 4.85042e-04 10.6397
24 1 7.36726 2.55165 10.6363
37 2 4.5121 4.29099 6.78936
38 2 0.0857867 1.7514 6.77718
41 2 7.27678 4.30084 6.78106
42 2 2.86033 1.7556 6.78073
45 2 1.47136 4.15308 6.77524
46 2 5.89422 1.61334 6.78255
49 2 7.4359 4.28124 11.4044
50 2 3.01545 1.74401 11.4194
51 2 8.75541 3.35492 9.07855
52 2 4.33337 0.802218 9.07792
53 2 1.41213 4.29691 11.4044
54 2 5.81669 1.74406 11.4265
55 2 5.97875 3.35217 9.07858
56 2 1.5597 0.800001 9.07881
57 2 4.41503 4.17515 11.4146
58 2 0.0131214 1.62473 11.4154
59 2 2.94959 3.50272 9.07745
60 2 7.37 0.950216 9.07982
1 1 0.0356399 0.00675517 12.7584
2 1 4.39652 2.55154 12.8161
5 1 2.9339 0.00517249 14.2563
6 1 7.25432 2.59432 14.3307
27 2 2.99493 3.16064 13.8746
28 2 7.39807 0.582411 13.6571
31 2 0.174717 3.61215 13.7938
32 2 4.64453 1.02377 13.9268
35 2 5.60902 3.58176 13.926
36 2 1.23072 0.946904 13.9585
61 3 3.44155 2.21431 19.9106
62 3 2.92278 2.20528 19.3134
65 3 2.00268 3.79667 18.213
66 3 1.85171 4.57632 17.8651
71 3 8.15394 4.09213 18.2804
72 3 7.72472 4.61832 17.9512
73 3 6.00663 4.97252 15.7444
74 3 6.72676 0.0888765 15.5583
83 3 2.29347 2.10135 15.5055
84 3 2.64923 2.81795 14.9843
87 3 8.62385 1.57234 17.1092
88 3 8.16866 1.0927 17.2282
93 3 2.19519 1.51206 17.514
97 3 1.19284 3.95174 15.8691
98 3 1.25005 4.59516 15.999
63 3 6.18807 4.78328 24.4065
64 3 6.4761 0.279078 24.8313
67 3 8.18143 2.73341 19.0695
68 3 7.93781 2.33337 18.3398
69 3 7.25646 0.389416 21.3981
70 3 7.8713 0.474746 21.0017
75 3 3.84728 0.692344 17.7023
76 3 3.04699 0.55735 17.5745
77 3 7.15275 2.8704 21.5852
78 3 7.67014 2.55083 21.473
79 3 2.94526 1.07519 20.889
80 3 3.03041 1.57711 21.4474
81 3 3.16527 0.0196364 23.9532
82 3 2.80005 4.25456 24.5937
85 3 1.24401 1.549 21.279
86 3 1.60114 2.14051 21.7939
89 3 6.34204 4.0488 22.4492
90 3 5.6917 3.71106 22.6613
91 3 3.87137 4.24048 20.573
92 3 3.604 4.97563 20.3863
94 3 2.7066 2.09117 17.2126
95 3 7.54563 1.6625 22.9368
96 3 7.62258 1.77212 23.7091
99 3 4.42893 4.80183 22.3559
100 3 4.0927 0.393933 22.317
114 3 3.87254 4.79153 26.1309
123 3 2.8876 3.71291 22.3111
127 3 0.769584 2.35012 23.6818
138 3 8.3856 4.68931 25.4993
101 3 3.90928 3.26162 28.2297
102 3 3.52742 3.14128 27.7177
103 3 4.35864 3.04208 0.0342646
104 3 4.47733 2.1609 0.303445
105 3 1.78177 0.419618 27.2087
106 3 1.72906 1.05696 26.8942
107 3 8.03285 2.64261 26.1297
108 3 8.64572 2.62453 26.6305
109 3 8.69282 5.07312 31.6468
110 3 0.271373 4.6062 31.2089
111 3 0.496392 0.418957 23.4213
112 3 1.17205 0.286093 23.5658
113 3 4.63784 4.63479 26.2832
115 3 4.16642 2.23808 25.6508
116 3 3.52375 2.26164 25.1793
117 3 6.86009 2.05581 28.9927
118 3 7.22232 2.31523 29.4749
119 3 3.24898 3.46665 30.3341
120 3 2.61237 3.09365 30.4432
121 3 2.68173 4.58919 0.135758
122 3 3.57359 4.48884 31.4833
124 3 2.71587 4.11019 21.5435
125 3 1.41222 1.61301 30.4704
126 3 0.707504 1.78459 30.0846
128 3 0.411281 2.41142 23.1019
129 3 7.18951 2.80608 31.583
130 3 6.63802 2.56483 31.1821
131 3 3.20377 0.937761 27.7997
132 3 3.51806 0.417605 27.6477
133 3 2.17803 3.01988 27.0039
134 3 2.26607 2.57232 26.4616
135 3 7.47182 1.55233 1.08704
136 3 5.40581 0.954171 4.17449
137 3 0.335001 4.23349 25.7349
139 3 5.3359 0.715507 29.3584
140 3 4.94847 1.1946 29.042
ITEM: TIMESTEP
300
ITEM: NUMBER OF ATOMS
140
ITEM: BOX BOUNDS pp pp pp
0.0 8.8419
0.0 5.1049
0.0 31.6993
ITEM: ATOMS id type x y z
3 1 0.112498 5.05415 3.41247
4 1 4.19969 2.75821 3.08042
7 1 5.86543 5.03614 1.55329
8 1 1.49775 2.772 1.70886
9 1 2.89406 0.0183478 3.45284
10 1 7.37567 2.72502 3.66756
13 1 5.96515 4.73305 5.53657
14 1 1.46943 2.55736 5.14468
15 1 0.00746148 5.0923 6.13631
16 1 4.35688 2.59356 6.24697
25 2 1.59316 4.50503 1.80266
26 2 6.03023 1.90876 1.83947
29 2 4.30017 4.22403 2.06168
30 2 8.72955 1.55495 1.01271
33 2 7.51869 4.10353 1.74462
34 2 3.17789 1.63802 1.93065
39 2 5.84574 3.31035 4.33339
40 2 1.40314 0.78798 4.44242
43 2 3.01457 3.37057 4.42931
44 2 7.50974 0.782478 4.31962
47 2 8.84034 3.48471 4.34455
48 2 4.5617 0.978841 4.45347
11 1 2.94996 5.10287 7.47425
12 1 7.36683 2.56549 7.47693
17 1 5.89539 5.10333 8.39499
18 1 1.47563 2.55073 8.37642
19 1 5.83799 0.00676142 12.3463
20 1 1.50119 2.56399 12.1739
21 1 0.00363038 9.98875e-04 9.73268
22 1 4.41815 2.55016 9.75388
23 1 2.94315 0.00156995 10.7166
24 1 7.37118 2.5461 10.6836
37 2 4.54918 4.27079 6.84597
38 2 0.132182 1.78093 6.77699
41 2 7.23583 4.31797 6.80423
42 2 2.80365 1.79305 6.7864
45 2 1.46304 4.09398 6.77365
46 2 5.888 1.56863 6.8097
49 2 7.44057 4.26897 11.3704
50 2 3.0392 1.77109 11.4331
51 2 8.70854 3.32953 9.08046
52 2 4.28377 0.777754 9.08674
53 2 1.39873 4.31368 11.3967
54 2 5.76436 1.75919 11.4397
55 2 6.02333 3.32045 9.09143
56 2 1.60712 0.769533 9.083
57 2 4.42486 4.14578 11.423
58 2 0.0480204 1.60594 11.4171
59 2 2.95061 3.55687 9.08687
60 2 7.37364 1.00661 9.08896
1 1 0.0733552 0.0363543 12.5895
2 1 4.36221 2.56451 12.655
5 1 3.03531 0.00161756 13.8888
6 1 7.18362 2.61113 14.2362
27 2 2.86513 3.26491 14.0354
28 2 7.34495 0.54427 13.5211
31 2 0.338968 3.56169 13.7302
32 2 4.50487 0.883252 14.028
35 2 5.6099 3.62573 13.9702
36 2 1.2692 1.03539 14.0601
61 3 3.88299 2.71171 19.0248
62 3 4.55901 2.88258 19.3322
65 3 2.2216 4.84095 19.8939
66 3 2.29733 0.0658057 19.2733
71 3 8.57083 0.178494 19.3548
72 3 8.37352 4.7147 19.1471
73 3 6.59474 0.0494228 15.1845
74 3 7.46441 0.143956 15.4438
83 3 4.09302 2.87167 16.5779
84 3 3.52882 2.40895 17.0285
87 3 7.98812 0.609297 17.1656
88 3 8.76078 0.530053 16.7744
93 3 0.48285 2.01536 18.0307
97 3 1.30403 3.36694 16.8432
98 3 0.976908 3.87267 15.989
63 3 6.72445 4.84735 26.9147
64 3 6.03432 4.65928 26.9746
67 3 7.68146 1.64329 18.8338
68 3 7.99738 1.8141 19.3945
69 3 5.70891 0.973513 19.1534
70 3 5.08707 1.35024 19.3552
75 3 4.57491 4.75789 16.1909
76 3 3.8348 4.6984 16.4125
77 3 7.02459 1.98233 20.6605
78 3 6.77886 2.60142 20.944
79 3 3.3766 1.59583 20.97
80 3 2.66795 1.16845 21.0097
81 3 1.83107 3.97947 25.9937
82 3 2.19965 3.52237 25.7578
85 3 1.73282 2.98389 19.9013
86 3 1.30768 3.24117 20.2541
89 3 5.2105 2.73818 20.7985
90 3 4.95956 2.51747 21.4927
91 3 6.749 3.22151 19.1063
92 3 6.51266 3.93028 19.1655
94 3 0.023677 2.77027 18.2453
95 3 7.36867 1.21145 23.9541
96 3 7.61312 1.09496 24.6876
99 3 5.7729 0.672178 22.8414
100 3 5.52575 1.04866 22.3816
114 3 3.75678 0.640293 25.4138
123 3 4.05323 3.75197 20.4649
127 3 0.0794115 3.14534 23.7986
138 3 8.55446 4.34418 25.9145
101 3 5.05271 3.3942 28.6123
102 3 4.65851 3.0099 27.8276
103 3 4.40222 2.22422 0.0566883
104 3 4.44565 1.66393 31.3494
105 3 0.41112 4.91347 29.4684
106 3 1.04671 0.393329 29.6613
107 3 8.14763 0.492751 27.1015
108 3 8.02946 1.15701 27.4597
109 3 8.63861 4.64971 31.2626
110 3 0.411733 4.96138 31.6566
111 3 2.82941 4.94575 21.9709
112 3 1.97106 4.94556 21.8798
113 3 3.333 1.16976 25.8875
115 3 4.93591 3.0604 24.6833
116 3 4.49587 2.89472 24.0324
117 3 5.12209 4.50745 30.3323
118 3 5.794 4.13445 30.077
119 3 2.23895 1.36132 29.5637
120 3 2.69337 1.1256 30.2295
121 3 2.97971 0.473936 31.6354
122 3 2.38199 0.0938544 0.340444
124 3 3.90388 3.80526 21.152
125 3 8.46103 1.74293 31.2047
126 3 8.52927 0.924337 30.814
128 3 0.429048 3.8885 23.8937
129 3 6.73145 1.26156 30.8215
130 3 7.14473 1.53153 30.3959
131 3 4.1874 0.410017 28.8399
132 3 3.9232 1.2098 28.9711
133 3 0.339942 2.33991 28.1145
134 3 1.10831 2.36126 27.8138
135 3 7.54783 1.79105 1.00613
136 3 8.38096 4.09904 1.63176
137 3 0.291963 4.65049 26.1759
139 3 6.28936 1.71482 28.4075
140 3 6.78952 1.77345 28.0086
ITEM: TIMESTEP
400
ITEM: NUMBER OF ATOMS
140
ITEM: BOX BOUNDS pp pp pp
0.0 8.8419
0.0 5.1049
0.0 31.6993
ITEM: ATOMS id type x y z
3 1 0.237411 5.05215 3.65812
4 1 4.24298 2.757 3.1143
7 1 5.78107 4.95107 1.70822
8 1 1.63432 2.78545 1.97515
9 1 2.88081 0.140957 3.3329
10 1 7.22715 2.74704 3.85774
13 1 6.06208 4.6077 5.70026
14 1 1.44845 2.55697 5.04748
15 1 0.028861 5.06316 6.30997
16 1 4.27926 2.53215 6.41303
25 2 1.55485 4.30199 1.85643
26 2 5.91201 1.87342 2.0266
29 2 4.38528 4.37376 2.06057
30 2 8.52564 1.97106 0.515071
33 2 7.63948 4.11577 1.62764
34 2 2.86022 1.77393 1.99482
39 2 5.80898 3.28223 4.31852
40 2 1.43114 0.801406 4.37315
43 2 3.10342 3.37903 4.54652
44 2 7.54947 0.788983 4.27404
47 2 8.80251 3.5556 4.34557
48 2 4.46258 0.984996 4.59938
11 1 2.9626 0.00408733 7.44382
12 1 7.35439 2.6027 7.44015
17 1 5.89775 5.09516 8.49079
18 1 1.48113 2.55003 8.39944
19 1 5.76859 0.00340526 12.3924
20 1 1.5326 2.57889 12.2204
21 1 0.0113717 0.00192558 9.59466
22 1 4.41101 2.54807 9.63175
23 1 2.93603 0.00302472 10.831
24 1 7.38563 2.52774 10.7089
37 2 4.54972 4.2339 6.90966
38 2 0.167512 1.78835 6.74959
41 2 7.24195 4.30535 6.81647
42 2 2.7415 1.81142 6.7817
45 2 1.44108 4.05098 6.76725
46 2 5.88283 1.47178 6.81941
49 2 7.4553 4.2814 11.2885
50 2 3.05965 1.89237 11.3528
51 2 8.67501 3.31076 9.07173
52 2 4.23467 0.761039 9.111
53 2 1.32134 4.32676 11.2833
54 2 5.6754 1.74496 11.4026
55 2 6.05723 3.28222 9.11666
56 2 1.64877 0.741493 9.07855
57 2 4.48721 4.07543 11.3217
58 2 0.10261 1.56371 11.3649
59 2 2.9451 3.60338 9.11278
60 2 7.3862 1.05609 9.09711
1 1 0.129557 0.074909 12.4455
2 1 4.30072 2.57037 12.5498
5 1 3.03602 0.0127113 13.4961
6 1 7.22353 2.5986 14.1415
27 2 2.79733 3.47171 14.0255
28 2 7.28427 0.794489 13.3482
31 2 0.261774 3.45209 13.6832
32 2 4.28104 0.75635 14.0262
35 2 5.78739 3.47123 13.9032
36 2 1.46153 1.06332 14.0261
61 3 5.62451 4.88264 19.2298
62 3 5.56473 3.89152 19.2589
65 3 2.1333 1.36534 19.4295
66 3 2.46231 2.00438 18.9243
71 3 0.134721 4.88675 20.504
72 3 0.606148 0.13168 19.8364
73 3 8.38433 0.102482 16.2866
74 3 8.45211 0.283414 15.4963
83 3 4.32517 1.73108 16.024
84 3 3.73212 1.20355 15.853
87 3 1.40341 0.501164 17.9358
88 3 0.825426 0.0939765 17.5323
93 3 8.57409 3.29759 16.1579
97 3 1.3577 3.79308 15.2667
98 3 2.06175 2.72042 14.349
63 3 5.32785 4.93999 25.6441
64 3 5.87943 0.179169 25.9615
67 3 7.29894 0.156716 20.1834
68 3 7.21265 4.91624 19.4322
69 3 4.78729 0.329639 16.8223
70 3 5.04302 4.90961 17.4251
75 3 1.96549 4.33703 16.7497
76 3 2.42236 3.83139 17.0785
77 3 0.140884 2.22993 21.3887
78 3 8.42454 1.51648 21.6024
79 3 3.10687 2.866 20.8119
80 3 3.72023 2.7098 21.1064
81 3 1.93208 2.5696 27.8419
82 3 2.43376 1.67567 27.7693
85 3 1.53933 3.37203 20.4223
86 3 1.37033 3.06381 19.665
89 3 5.20467 1.44433 19.8511
90 3 4.55321 0.887149 19.8354
91 3 6.68916 3.20136 17.1452
92 3 6.73363 3.55674 17.92
94 3 8.47394 2.77179 16.627
95 3 7.07574 0.766079 24.9912
96 3 7.60052 0.343739 25.6636
99 3 7.25269 2.26959 22.846
100 3 7.23229 1.53277 23.2593
114 3 1.95287 2.42213 25.1785
123 3 3.96976 4.44214 20.7003
127 3 8.79857 4.70998 23.6044
138 3 0.251274 3.72053 25.9342
101 3 3.7204 4.20183 29.0956
102 3 3.25206 3.62575 29.1752
103 3 4.54443 1.55292 31.5398
104 3 4.33778 2.27861 0.054349
105 3 8.49865 3.72296 28.7499
106 3 0.135032 4.02615 28.3451
107 3 0.439985 0.145884 27.392
108 3 8.48353 0.502263 27.3572
109 3 0.928076 4.24259 31.3035
110 3 1.44976 3.97463 31.1363
111 3 2.48637 4.82146 22.7865
112 3 1.95943 4.73178 22.1752
113 3 2.38337 2.02655 24.8423
115 3 5.08974 3.0094 25.4869
116 3 4.7095 2.92456 24.8135
117 3 4.13682 4.99719 30.6116
118 3 3.83664 4.38858 30.936
119 3 1.77121 0.58889 28.4363
120 3 1.9773 0.0195735 28.5468
121 3 0.950746 0.372837 30.866
122 3 1.57169 0.882426 31.3107
124 3 4.54967 4.74134 21.0197
125 3 0.192432 1.82765 30.0087
126 3 0.247435 2.45079 30.0995
128 3 0.624529 4.72026 23.8755
129 3 6.30616 1.29859 29.631
130 3 6.17979 0.900799 30.4526
131 3 4.93709 0.990858 29.0976
132 3 4.97032 0.283111 29.0011
133 3 0.493656 2.06788 28.2876
134 3 0.38942 1.55328 27.9165
135 3 0.229421 1.66656 0.715609
136 3 8.12426 3.5117 1.3478
137 3 8.76445 4.07173 25.798
139 3 7.24134 2.20994 28.3412
140 3 7.53065 2.74541 27.8713
ITEM: TIMESTEP
500
ITEM: NUMBER OF ATOMS
140
ITEM: BOX BOUNDS pp pp pp
0.0 8.8419
0.0 5.1049
0.0 31.6993
ITEM: ATOMS id type x y z
3 1 0.235364 5.04555 3.74618
4 1 4.37227 2.65028 3.2553
7 1 5.76135 5.00612 1.84897
8 1 1.69465 2.74676 2.33186
9 1 2.922 0.31095 3.21715
10 1 7.13393 2.65089 4.03283
13 1 6.09276 4.69375 5.70145
14 1 1.40645 2.53054 4.96141
15 1 0.0733532 5.03563 6.52469
16 1 4.15892 2.42769 6.55684
25 2 1.38561 4.37589 1.95405
26 2 5.85297 1.81232 2.21752
29 2 4.20972 4.4062 1.92757
30 2 8.77349 2.23034 0.201742
33 2 7.80628 4.22133 1.43632
34 2 2.67503 1.79625 1.9757
39 2 5.88517 3.32085 4.43374
40 2 1.54988 0.804004 4.35498
43 2 3.20066 3.45284 4.71055
44 2 7.44283 0.797812 4.45637
47 2 8.73997 3.53029 4.50065
48 2 4.40005 0.903419 4.83083
11 1 2.96733 5.10245 7.47419
12 1 7.34556 2.61137 7.46117
17 1 5.90788 5.08779 8.58908
18 1 1.48856 2.55651 8.36247
19 1 5.74828 8.3601e-04 12.4263
20 1 1.45966 2.54908 12.1243
21 1 0.0189171 5.10287 9.446
22 1 4.40016 2.53765 9.50898
23 1 2.93454 0.0187205 10.8646
24 1 7.41184 2.49131 10.6894
37 2 4.52294 4.16165 6.97519
38 2 0.141232 1.73953 6.71141
41 2 7.29875 4.2589 6.89367
42 2 2.70527 1.77025 6.809
45 2 1.4262 4.07389 6.75463
46 2 5.89157 1.46239 6.89143
49 2 7.44719 4.32397 11.2391
50 2 3.02357 1.98791 11.218
51 2 8.70223 3.30614 9.0273
52 2 4.24587 0.760831 9.13864
53 2 1.23564 4.31014 11.1269
54 2 5.63765 1.67206 11.2922
55 2 6.04129 3.27068 9.09751
56 2 1.64226 0.764805 9.0512
57 2 4.56679 4.04077 11.1554
58 2 0.137274 1.57912 11.2529
59 2 2.92715 3.5972 9.11868
60 2 7.39808 1.03359 9.06977
1 1 0.130448 0.113178 12.3569
2 1 4.39846 2.55987 12.3948
5 1 2.96352 0.0337326 13.2621
6 1 7.24338 2.52871 13.9381
27 2 2.78569 3.53213 14.3059
28 2 7.30162 0.886607 13.4632
31 2 0.00504325 3.54714 13.7414
32 2 4.33964 0.895684 13.6729
35 2 5.80442 3.37311 13.7881
36 2 1.59165 0.902249 13.8528
61 3 5.65501 4.41958 19.9872
62 3 5.73668 4.84837 20.359
65 3 2.60029 3.55265 18.3281
66 3 3.34284 3.02144 18.3588
71 3 0.982884 0.498772 21.2838
72 3 0.3843 0.557067 21.4525
73 3 0.635419 0.85198 15.8383
74 3 0.260746 0.431993 15.2879
83 3 3.38654 2.004 16.1121
84 3 3.89365 2.3352 16.7017
87 3 1.55738 0.926157 19.3398
88 3 1.70078 1.26292 19.9917
93 3 0.365015 3.50526 17.5643
97 3 1.728 3.08181 14.7322
98 3 3.34297 3.09595 14.3358
63 3 3.05053 1.88935 24.4543
64 3 2.60233 1.24515 24.9348
67 3 7.37488 2.44177 19.8492
68 3 7.58467 3.0226 20.1236
69 3 4.65802 3.71465 14.9877
70 3 4.72571 3.07778 15.3003
75 3 2.32381 3.42616 16.2953
76 3 1.82852 2.85321 16.5158
77 3 2.10245 2.34704 22.5524
78 3 2.50168 1.90556 22.2276
79 3 4.45897 1.7224 22.8269
80 3 4.43657 2.53556 22.631
81 3 4.7128 2.97204 27.9137
82 3 5.00659 3.11588 28.4098
85 3 0.743143 3.39867 20.019
86 3 1.18644 3.95268 20.2756
89 3 5.23164 2.47166 19.0542
90 3 4.83802 1.83808 19.0912
91 3 6.64827 3.2695 16.7505
92 3 6.8506 3.83531 16.8484
94 3 8.65676 3.86609 17.0674
95 3 6.91947 0.697538 23.8485
96 3 7.11667 1.42908 24.0879
99 3 8.34345 2.90773 24.0048
100 3 7.94262 3.23642 23.3553
114 3 1.80915 3.19503 24.0698
123 3 3.80458 0.80103 21.1777
127 3 8.79039 1.00793 23.1827
138 3 8.82799 2.39998 25.8516
101 3 2.15948 3.3952 29.7239
102 3 2.85969 2.97304 29.56
103 3 4.40524 2.61126 0.15889
104 3 5.19305 2.24491 0.315189
105 3 8.02041 4.41336 28.8539
106 3 8.11918 3.86672 28.2081
107 3 8.28499 4.32645 26.8358
108 3 8.60191 4.76842 26.3536
109 3 1.2259 2.49142 31.0348
110 3 1.88128 2.14537 31.4647
111 3 2.44398 4.55572 23.2278
112 3 2.38115 4.47327 22.634
113 3 1.00769 3.23969 23.8375
115 3 5.27881 2.88531 26.0982
116 3 4.87159 2.69864 25.2661
117 3 3.07662 5.04443 0.52852
118 3 2.13787 0.168927 0.696421
119 3 1.2469 4.00405 27.024
120 3 1.20034 4.26365 27.8326
121 3 1.77176 0.996699 29.5539
122 3 2.23528 1.52425 29.7284
124 3 3.21663 0.601478 21.6885
125 3 7.41969 2.84624 30.248
126 3 7.8525 2.23051 29.8713
128 3 0.41117 0.410959 23.103
129 3 6.82345 0.661216 31.2246
130 3 6.96779 0.790939 30.6512
131 3 4.94975 4.28905 27.3818
132 3 4.43614 4.89825 27.7252
133 3 1.9675 1.91382 26.3872
134 3 1.90445 2.34908 26.9767
135 3 7.82615 2.06578 0.713242
136 3 8.38078 3.6122 1.00518
137 3 8.64802 1.69795 25.8647
139 3 5.87145 1.81679 28.1456
140 3 6.36445 1.44424 27.5958
ITEM: TIMESTEP
600
ITEM: NUMBER OF ATOMS
140
ITEM: BOX BOUNDS pp pp pp
0.0 8.8419
0.0 5.1049
0.0 31.6993
ITEM: ATOMS id type x y z
3 1 0.0975003 5.02071 3.74072
4 1 4.45234 2.61449 3.45075
7 1 5.77203 0.0254564 2.00404
8 1 1.59113 2.74904 2.54223
9 1 3.02203 0.324835 3.29033
10 1 7.207 2.45492 4.19915
13 1 6.02516 4.88152 5.66362
14 1 1.36249 2.47477 5.04916
15 1 0.0894024 4.97031 6.71785
16 1 4.06736 2.38633 6.60001
25 2 1.29478 4.47929 2.20708
26 2 6.02691 1.84948 2.34421
29 2 4.11412 4.30635 1.88943
30 2 8.82435 2.24608 0.206695
33 2 7.83839 4.48808 1.12272
34 2 2.95135 1.77119 1.79753
39 2 6.00011 3.44816 4.49784
40 2 1.69285 0.819287 4.19722
43 2 3.26238 3.56412 4.68677
44 2 7.30955 0.837948 4.49692
47 2 8.70985 3.49048 4.73958
48 2 4.45285 0.906275 4.89211
11 1 2.95553 5.04771 7.6149
12 1 7.33297 2.57078 7.52973
17 1 5.92968 5.07807 8.59284
18 1 1.48049 2.56529 8.24158
19 1 5.8487 5.08723 12.4118
20 1 1.30448 2.4769 11.8325
21 1 0.026756 5.10338 9.40977
22 1 4.3888 2.50335 9.45952
23 1 2.92938 0.0491877 10.7161
24 1 7.43111 2.43263 10.6267
37 2 4.5507 4.17801 6.96405
38 2 0.118039 1.67761 6.70854
41 2 7.25256 4.2642 6.97279
42 2 2.63193 1.72587 6.84223
45 2 1.4416 4.06438 6.72171
46 2 5.88015 1.48094 6.99015
49 2 7.452 4.39645 11.2417
50 2 2.96968 1.95981 11.1711
51 2 8.72699 3.2287 9.03617
52 2 4.27102 0.72868 9.14762
53 2 1.22619 4.28941 11.1336
54 2 5.77492 1.63693 11.1563
55 2 6.05527 3.27607 9.0495
56 2 1.66617 0.812739 9.06556
57 2 4.53215 4.06517 11.1473
58 2 0.046136 1.58905 11.1653
59 2 2.88946 3.60783 9.09519
60 2 7.38208 1.00287 9.06193
1 1 8.8321 0.136983 12.2964
2 1 4.61168 2.52472 12.0515
5 1 2.94071 0.133962 13.2563
6 1 7.32992 2.45753 13.6393
27 2 2.50414 3.2952 15.2163
28 2 7.4104 0.725677 13.744
31 2 8.75336 3.60855 13.8424
32 2 4.43733 1.08116 13.4359
35 2 5.65271 3.45136 13.5395
36 2 1.64414 0.980479 13.4957
61 3 5.87201 4.36084 20.8859
62 3 5.36114 4.09308 20.5387
65 3 2.5835 0.583877 18.9616
66 3 3.15548 5.05934 19.3639
71 3 0.254743 0.551528 21.8345
72 3 1.03665 0.660377 21.4839
73 3 0.449408 0.755873 15.2227
74 3 0.654325 0.0545422 15.3556
83 3 3.54029 0.940981 15.8327
84 3 4.31049 0.781425 16.1667
87 3 2.18101 2.38595 20.2493
88 3 2.01565 1.84612 19.7421
93 3 8.56626 4.5969 18.2764
97 3 1.56717 4.17435 14.1607
98 3 2.28397 2.71054 14.7075
63 3 1.1746 1.89662 23.749
64 3 1.4685 1.63554 24.3828
67 3 7.28056 1.04187 20.1295
68 3 7.07423 0.250929 20.2971
69 3 4.87079 3.60888 16.338
70 3 5.1904 3.22936 16.7878
75 3 1.66478 3.52723 17.7022
76 3 1.82762 2.86001 17.4561
77 3 4.33298 2.35729 22.9644
78 3 4.73544 2.96218 22.7028
79 3 5.31059 3.33656 24.4448
80 3 5.98765 3.10782 24.4344
81 3 5.27174 4.30435 30.1883
82 3 5.04223 3.68466 29.9718
85 3 1.50063 4.33354 20.0816
86 3 1.48505 3.89565 20.6021
89 3 6.20611 2.94759 18.7368
90 3 5.90268 2.22681 18.7265
91 3 6.86747 4.86345 17.2664
92 3 6.5925 4.6871 17.9775
94 3 0.190398 4.07804 18.4208
95 3 5.5037 1.00652 22.0041
96 3 5.80609 0.506135 22.1317
99 3 7.60301 4.88585 23.3152
100 3 7.72079 4.57849 23.8854
114 3 0.788115 4.57975 23.6523
123 3 2.61046 1.10888 21.9494
127 3 7.59829 1.38339 23.5523
138 3 8.40374 0.945109 26.0277
101 3 3.03253 3.48662 28.848
102 3 2.4869 3.57921 29.3877
103 3 4.27209 2.68555 0.127024
104 3 4.91054 2.3735 0.394877
105 3 7.59793 4.19759 28.7939
106 3 7.81744 4.8335 28.6435
107 3 7.0804 3.32422 25.9227
108 3 7.34432 3.60827 25.1029
109 3 1.10528 1.68052 30.3674
110 3 1.42609 2.17183 30.2176
111 3 3.92143 0.346131 23.8028
112 3 3.8894 4.6324 23.6532
113 3 0.948834 4.05941 23.2571
115 3 6.05586 2.66246 26.9649
116 3 6.08339 2.16068 26.5841