# LAMMPS data file written by reax_tools

140 atoms
126 bonds
3 atom types
1 bond types

0 8.8419 xlo xhi
0 5.1049 ylo yhi
0 31.6993 zlo zhi

Atoms # full

3 1 1 0.0 0.237 5.052 3.658 0 0 0
44 1 2 0.0 7.549 0.789 4.274 0 0 0
10 1 1 0.0 7.227 2.747 3.858 0 0 0
39 1 2 0.0 5.809 3.282 4.319 0 0 0
4 1 1 0.0 4.243 2.757 3.114 0 0 0
26 1 2 0.0 5.912 1.873 2.027 0 0 0
7 1 1 0.0 5.781 4.951 1.708 0 0 0
29 1 2 0.0 4.385 4.374 2.061 0 0 0
9 1 1 0.0 2.881 0.141 3.333 0 0 0
48 1 2 0.0 4.463 0.985 4.599 0 0 0
25 1 2 0.0 1.555 4.302 1.856 0 0 0
8 1 1 0.0 1.634 2.785 1.975 0 0 0
34 1 2 0.0 2.860 1.774 1.995 0 0 0
40 1 2 0.0 1.431 0.801 4.373 0 0 0
14 1 1 0.0 1.448 2.557 5.047 0 0 0
47 1 2 0.0 8.803 3.556 4.346 0 0 0
43 1 2 0.0 3.103 3.379 4.547 0 0 0
33 1 2 0.0 7.639 4.116 1.628 0 0 0
136 1 3 0.0 8.124 3.512 1.348 0 0 0
13 1 1 0.0 6.062 4.608 5.700 0 0 0
37 1 2 0.0 4.550 4.234 6.910 0 0 0
16 1 1 0.0 4.279 2.532 6.413 0 0 0
46 1 2 0.0 5.883 1.472 6.819 0 0 0
12 1 1 0.0 7.354 2.603 7.440 0 0 0
38 1 2 0.0 0.168 1.788 6.750 0 0 0
15 1 1 0.0 0.029 5.063 6.310 0 0 0
41 1 2 0.0 7.242 4.305 6.816 0 0 0
45 1 2 0.0 1.441 4.051 6.767 0 0 0
11 1 1 0.0 2.963 0.004 7.444 0 0 0
42 1 2 0.0 2.741 1.811 6.782 0 0 0
18 1 1 0.0 1.481 2.550 8.399 0 0 0
51 1 2 0.0 8.675 3.311 9.072 0 0 0
21 1 1 0.0 0.011 0.002 9.595 0 0 0
60 1 2 0.0 7.386 1.056 9.097 0 0 0
17 1 1 0.0 5.898 5.095 8.491 0 0 0
52 1 2 0.0 4.235 0.761 9.111 0 0 0
22 1 1 0.0 4.411 2.548 9.632 0 0 0
55 1 2 0.0 6.057 3.282 9.117 0 0 0
24 1 1 0.0 7.386 2.528 10.709 0 0 0
58 1 2 0.0 0.103 1.564 11.365 0 0 0
20 1 1 0.0 1.533 2.579 12.220 0 0 0
50 1 2 0.0 3.060 1.892 11.353 0 0 0
23 1 1 0.0 2.936 0.003 10.831 0 0 0
57 1 2 0.0 4.487 4.075 11.322 0 0 0
19 1 1 0.0 5.769 0.003 12.392 0 0 0
49 1 2 0.0 7.455 4.281 11.288 0 0 0
1 1 1 0.0 0.130 0.075 12.446 0 0 0
53 1 2 0.0 1.321 4.327 11.283 0 0 0
28 1 2 0.0 7.284 0.794 13.348 0 0 0
6 1 1 0.0 7.224 2.599 14.142 0 0 0
31 1 2 0.0 0.262 3.452 13.683 0 0 0
35 1 2 0.0 5.787 3.471 13.903 0 0 0
2 1 1 0.0 4.301 2.570 12.550 0 0 0
54 1 2 0.0 5.675 1.745 11.403 0 0 0
59 1 2 0.0 2.945 3.603 9.113 0 0 0
56 1 2 0.0 1.649 0.741 9.079 0 0 0
30 2 2 0.0 8.526 1.971 0.515 0 0 0
135 2 3 0.0 0.229 1.667 0.716 0 0 0
5 3 1 0.0 3.036 0.013 13.496 0 0 0
27 3 2 0.0 2.797 3.472 14.026 0 0 0
98 3 3 0.0 2.062 2.720 14.349 0 0 0
32 3 2 0.0 4.281 0.756 14.026 0 0 0
36 3 2 0.0 1.462 1.063 14.026 0 0 0
61 4 3 0.0 5.625 4.883 19.230 0 0 0
62 4 3 0.0 5.565 3.892 19.259 0 0 0
65 5 3 0.0 2.133 1.365 19.430 0 0 0
66 5 3 0.0 2.462 2.004 18.924 0 0 0
71 6 3 0.0 0.135 4.887 20.504 0 0 0
72 6 3 0.0 0.606 0.132 19.836 0 0 0
73 7 3 0.0 8.384 0.102 16.287 0 0 0
74 7 3 0.0 8.452 0.283 15.496 0 0 0
83 8 3 0.0 4.325 1.731 16.024 0 0 0
84 8 3 0.0 3.732 1.204 15.853 0 0 0
87 9 3 0.0 1.403 0.501 17.936 0 0 0
88 9 3 0.0 0.825 0.094 17.532 0 0 0
93 10 3 0.0 8.574 3.298 16.158 0 0 0
94 10 3 0.0 8.474 2.772 16.627 0 0 0
97 11 3 0.0 1.358 3.793 15.267 0 0 0
63 12 3 0.0 5.328 4.940 25.644 0 0 0
64 12 3 0.0 5.879 0.179 25.962 0 0 0
67 13 3 0.0 7.299 0.157 20.183 0 0 0
68 13 3 0.0 7.213 4.916 19.432 0 0 0
69 14 3 0.0 4.787 0.330 16.822 0 0 0
70 14 3 0.0 5.043 4.910 17.425 0 0 0
75 15 3 0.0 1.965 4.337 16.750 0 0 0
76 15 3 0.0 2.422 3.831 17.079 0 0 0
77 16 3 0.0 0.141 2.230 21.389 0 0 0
78 16 3 0.0 8.425 1.516 21.602 0 0 0
79 17 3 0.0 3.107 2.866 20.812 0 0 0
80 17 3 0.0 3.720 2.710 21.106 0 0 0
81 18 3 0.0 1.932 2.570 27.842 0 0 0
82 18 3 0.0 2.434 1.676 27.769 0 0 0
85 19 3 0.0 1.539 3.372 20.422 0 0 0
86 19 3 0.0 1.370 3.064 19.665 0 0 0
89 20 3 0.0 5.205 1.444 19.851 0 0 0
90 20 3 0.0 4.553 0.887 19.835 0 0 0
91 21 3 0.0 6.689 3.201 17.145 0 0 0
92 21 3 0.0 6.734 3.557 17.920 0 0 0
95 22 3 0.0 7.076 0.766 24.991 0 0 0
96 22 3 0.0 7.601 0.344 25.664 0 0 0
99 23 3 0.0 7.253 2.270 22.846 0 0 0
100 23 3 0.0 7.232 1.533 23.259 0 0 0
114 24 3 0.0 1.953 2.422 25.178 0 0 0
113 24 3 0.0 2.383 2.027 24.842 0 0 0
123 25 3 0.0 3.970 4.442 20.700 0 0 0
124 25 3 0.0 4.550 4.741 21.020 0 0 0
127 26 3 0.0 8.799 4.710 23.604 0 0 0
128 26 3 0.0 0.625 4.720 23.875 0 0 0
138 27 3 0.0 0.251 3.721 25.934 0 0 0
137 27 3 0.0 8.764 4.072 25.798 0 0 0
101 28 3 0.0 3.720 4.202 29.096 0 0 0
102 28 3 0.0 3.252 3.626 29.175 0 0 0
103 29 3 0.0 4.544 1.553 31.540 0 0 0
104 29 3 0.0 4.338 2.279 0.054 0 0 0
105 30 3 0.0 8.499 3.723 28.750 0 0 0
106 30 3 0.0 0.135 4.026 28.345 0 0 0
107 31 3 0.0 0.440 0.146 27.392 0 0 0
108 31 3 0.0 8.484 0.502 27.357 0 0 0
109 32 3 0.0 0.928 4.243 31.303 0 0 0
110 32 3 0.0 1.450 3.975 31.136 0 0 0
111 33 3 0.0 2.486 4.821 22.787 0 0 0
112 33 3 0.0 1.959 4.732 22.175 0 0 0
115 34 3 0.0 5.090 3.009 25.487 0 0 0
116 34 3 0.0 4.709 2.925 24.813 0 0 0
117 35 3 0.0 4.137 4.997 30.612 0 0 0
118 35 3 0.0 3.837 4.389 30.936 0 0 0
119 36 3 0.0 1.771 0.589 28.436 0 0 0
120 36 3 0.0 1.977 0.020 28.547 0 0 0
121 37 3 0.0 0.951 0.373 30.866 0 0 0
122 37 3 0.0 1.572 0.882 31.311 0 0 0
125 38 3 0.0 0.192 1.828 30.009 0 0 0
126 38 3 0.0 0.247 2.451 30.100 0 0 0
129 39 3 0.0 6.306 1.299 29.631 0 0 0
130 39 3 0.0 6.180 0.901 30.453 0 0 0
131 40 3 0.0 4.937 0.991 29.098 0 0 0
132 40 3 0.0 4.970 0.283 29.001 0 0 0
133 41 3 0.0 0.494 2.068 28.288 0 0 0
134 41 3 0.0 0.389 1.553 27.917 0 0 0
139 42 3 0.0 7.241 2.210 28.341 0 0 0
140 42 3 0.0 7.531 2.745 27.871 0 0 0

Bonds

1 1 3 44
2 1 3 47
3 1 3 40
4 1 4 26
5 1 4 39
6 1 4 29
7 1 4 34
8 1 4 43
9 1 7 29
10 1 7 26
11 1 7 33
12 1 8 25
13 1 8 34
14 1 9 48
15 1 9 25
16 1 9 29
17 1 9 34
18 1 9 40
19 1 10 39
20 1 10 44
21 1 10 47
22 1 13 39
23 1 13 37
24 1 13 41
25 1 14 47
26 1 14 40
27 1 14 43
28 1 15 41
29 1 15 38
30 1 15 45
31 1 16 37
32 1 16 46
33 1 16 42
34 1 30 135
35 1 33 136
36 1 11 37
37 1 11 42
38 1 11 45
39 1 12 38
40 1 12 41
41 1 12 46
42 1 12 51
43 1 17 52
44 1 17 55
45 1 17 60
46 1 18 51
47 1 18 42
48 1 18 45
49 1 18 56
50 1 18 59
51 1 19 49
52 1 19 54
53 1 19 57
54 1 19 28
55 1 20 50
56 1 20 53
57 1 20 58
58 1 20 31
59 1 21 51
60 1 21 60
61 1 21 56
62 1 22 55
63 1 22 52
64 1 22 59
65 1 23 57
66 1 23 50
67 1 23 53
68 1 24 58
69 1 24 55
70 1 24 60
71 1 24 49
72 1 24 54
73 1 49 1
74 1 50 2
75 1 53 1
76 1 54 2
77 1 57 2
78 1 58 1
79 1 1 28
80 1 1 31
81 1 2 35
82 1 5 27
83 1 5 32
84 1 5 36
85 1 6 31
86 1 6 28
87 1 6 35
88 1 27 98
89 1 61 62
90 1 65 66
91 1 71 72
92 1 73 74
93 1 83 84
94 1 87 88
95 1 93 94
96 1 63 64
97 1 67 68
98 1 69 70
99 1 75 76
100 1 77 78
101 1 79 80
102 1 81 82
103 1 85 86
104 1 89 90
105 1 91 92
106 1 95 96
107 1 99 100
108 1 114 113
109 1 123 124
110 1 127 128
111 1 138 137
112 1 101 102
113 1 103 104
114 1 105 106
115 1 107 108
116 1 109 110
117 1 111 112
118 1 115 116
119 1 117 118
120 1 119 120
121 1 121 122
122 1 125 126
123 1 129 130
124 1 131 132
125 1 133 134
126 1 139 140

