# LAMMPS data file written by reax_tools

140 atoms
146 bonds
3 atom types
1 bond types

0 8.8419 xlo xhi
0 5.1049 ylo yhi
0 31.6993 zlo zhi

Atoms # full

3 1 1 0.0 8.819 4.952 4.077 0 0 0
25 1 2 0.0 1.021 4.269 2.368 0 0 0
8 1 1 0.0 1.285 2.542 2.517 0 0 0
34 1 2 0.0 3.218 1.836 1.967 0 0 0
40 1 2 0.0 1.265 1.551 3.757 0 0 0
14 1 1 0.0 1.352 2.344 5.514 0 0 0
47 1 2 0.0 8.749 3.552 4.989 0 0 0
10 1 1 0.0 7.511 2.309 4.570 0 0 0
39 1 2 0.0 6.066 3.508 4.300 0 0 0
4 1 1 0.0 4.564 2.779 3.574 0 0 0
43 1 2 0.0 3.095 3.425 4.592 0 0 0
9 1 1 0.0 3.013 0.038 3.473 0 0 0
48 1 2 0.0 4.320 1.236 4.688 0 0 0
13 1 1 0.0 6.004 0.123 5.523 0 0 0
44 1 2 0.0 7.331 0.601 4.017 0 0 0
37 1 2 0.0 4.487 4.247 6.810 0 0 0
16 1 1 0.0 4.134 2.466 6.394 0 0 0
46 1 2 0.0 5.784 1.498 6.829 0 0 0
12 1 1 0.0 7.261 2.381 7.590 0 0 0
38 1 2 0.0 0.070 1.462 6.911 0 0 0
15 1 1 0.0 8.832 4.840 6.637 0 0 0
45 1 2 0.0 1.466 4.102 6.914 0 0 0
11 1 1 0.0 2.967 4.987 7.903 0 0 0
42 1 2 0.0 2.744 1.640 6.818 0 0 0
18 1 1 0.0 1.391 2.456 8.084 0 0 0
51 1 2 0.0 8.653 3.274 8.975 0 0 0
21 1 1 0.0 0.089 5.078 9.668 0 0 0
60 1 2 0.0 7.338 0.900 8.988 0 0 0
17 1 1 0.0 5.962 5.019 8.415 0 0 0
52 1 2 0.0 4.339 0.741 8.991 0 0 0
22 1 1 0.0 4.367 2.510 9.418 0 0 0
55 1 2 0.0 5.978 3.267 9.007 0 0 0
24 1 1 0.0 7.301 2.353 10.441 0 0 0
49 1 2 0.0 7.434 4.260 11.088 0 0 0
19 1 1 0.0 6.055 5.096 12.347 0 0 0
54 1 2 0.0 5.841 1.603 11.072 0 0 0
2 1 1 0.0 4.718 2.453 11.828 0 0 0
50 1 2 0.0 3.011 1.792 10.995 0 0 0
20 1 1 0.0 1.250 2.512 11.329 0 0 0
58 1 2 0.0 8.818 1.383 11.038 0 0 0
1 1 1 0.0 8.637 5.031 12.449 0 0 0
53 1 2 0.0 1.275 4.141 11.311 0 0 0
23 1 1 0.0 2.922 0.045 10.325 0 0 0
57 1 2 0.0 4.476 4.181 11.123 0 0 0
56 1 2 0.0 1.551 0.686 9.002 0 0 0
59 1 2 0.0 2.925 3.449 8.986 0 0 0
36 1 2 0.0 1.249 1.291 13.206 0 0 0
5 1 1 0.0 3.006 0.383 13.619 0 0 0
32 1 2 0.0 4.544 1.041 13.488 0 0 0
31 1 2 0.0 8.832 3.677 13.858 0 0 0
6 1 1 0.0 7.469 2.519 13.162 0 0 0
28 1 2 0.0 7.241 0.855 14.129 0 0 0
35 1 2 0.0 5.755 3.505 13.352 0 0 0
84 1 3 0.0 5.509 3.411 14.731 0 0 0
83 1 3 0.0 6.017 3.659 15.414 0 0 0
41 1 2 0.0 7.190 4.333 6.927 0 0 0
29 1 2 0.0 4.624 4.291 2.041 0 0 0
7 1 1 0.0 5.777 0.274 2.443 0 0 0
26 1 2 0.0 6.492 2.146 2.277 0 0 0
30 2 2 0.0 0.117 2.264 0.444 0 0 0
129 2 3 0.0 0.688 1.381 1.006 0 0 0
135 2 3 0.0 0.997 2.958 0.249 0 0 0
33 3 2 0.0 7.933 5.104 0.299 0 0 0
130 3 3 0.0 7.820 0.863 1.338 0 0 0
136 3 3 0.0 7.226 4.536 0.469 0 0 0
27 4 2 0.0 2.001 2.818 16.190 0 0 0
98 4 3 0.0 2.563 3.029 15.548 0 0 0
97 4 3 0.0 1.745 2.015 15.871 0 0 0
61 5 3 0.0 2.357 1.109 18.057 0 0 0
62 5 3 0.0 2.639 0.641 18.609 0 0 0
65 6 3 0.0 4.699 1.355 15.846 0 0 0
66 6 3 0.0 4.263 0.733 15.517 0 0 0
71 7 3 0.0 8.229 3.118 21.398 0 0 0
72 7 3 0.0 7.577 3.516 21.347 0 0 0
73 8 3 0.0 0.309 4.712 15.554 0 0 0
74 8 3 0.0 8.738 0.274 15.552 0 0 0
87 9 3 0.0 3.170 2.571 22.924 0 0 0
88 9 3 0.0 3.046 2.676 22.244 0 0 0
93 10 3 0.0 0.741 0.783 18.757 0 0 0
94 10 3 0.0 0.314 0.353 18.400 0 0 0
63 11 3 0.0 0.014 2.154 22.700 0 0 0
64 11 3 0.0 0.543 2.748 22.973 0 0 0
67 12 3 0.0 8.575 4.245 19.921 0 0 0
68 12 3 0.0 8.239 5.066 20.108 0 0 0
69 13 3 0.0 4.562 4.521 17.126 0 0 0
70 13 3 0.0 5.022 4.011 17.186 0 0 0
75 14 3 0.0 1.935 3.109 19.122 0 0 0
76 14 3 0.0 1.427 2.893 19.401 0 0 0
77 15 3 0.0 5.379 3.726 21.614 0 0 0
78 15 3 0.0 5.151 3.533 22.297 0 0 0
79 16 3 0.0 4.460 1.345 24.392 0 0 0
80 16 3 0.0 4.651 1.401 25.194 0 0 0
81 17 3 0.0 4.214 0.624 29.524 0 0 0
82 17 3 0.0 4.947 0.567 30.058 0 0 0
85 18 3 0.0 2.404 1.228 20.885 0 0 0
86 18 3 0.0 2.346 0.599 21.016 0 0 0
89 19 3 0.0 5.633 2.828 19.245 0 0 0
90 19 3 0.0 5.042 2.786 19.212 0 0 0
91 20 3 0.0 7.284 0.832 16.928 0 0 0
92 20 3 0.0 7.501 1.388 16.596 0 0 0
95 21 3 0.0 4.618 4.807 19.267 0 0 0
96 21 3 0.0 4.556 0.108 19.858 0 0 0
99 22 3 0.0 7.093 4.827 23.123 0 0 0
100 22 3 0.0 7.754 4.981 23.149 0 0 0
114 23 3 0.0 8.716 4.459 24.503 0 0 0
113 23 3 0.0 0.189 4.037 24.011 0 0 0
123 24 3 0.0 2.973 0.090 23.014 0 0 0
124 24 3 0.0 3.081 0.610 23.274 0 0 0
127 25 3 0.0 7.231 3.050 23.697 0 0 0
128 25 3 0.0 6.880 3.203 24.206 0 0 0
138 26 3 0.0 0.352 0.792 27.755 0 0 0
137 26 3 0.0 0.655 1.367 27.048 0 0 0
101 27 3 0.0 2.881 2.448 29.383 0 0 0
102 27 3 0.0 3.671 2.179 29.261 0 0 0
103 28 3 0.0 4.106 2.850 0.336 0 0 0
104 28 3 0.0 4.925 2.865 0.219 0 0 0
105 29 3 0.0 1.074 2.587 28.104 0 0 0
106 29 3 0.0 0.907 3.145 27.828 0 0 0
107 30 3 0.0 7.471 1.749 26.679 0 0 0
108 30 3 0.0 7.132 2.274 27.392 0 0 0
109 31 3 0.0 7.553 3.650 30.430 0 0 0
110 31 3 0.0 7.248 4.053 29.983 0 0 0
111 32 3 0.0 4.085 1.025 21.844 0 0 0
112 32 3 0.0 4.148 1.029 21.217 0 0 0
115 33 3 0.0 5.814 2.597 28.661 0 0 0
116 33 3 0.0 5.730 2.352 29.196 0 0 0
117 34 3 0.0 3.842 0.438 0.363 0 0 0
118 34 3 0.0 3.176 5.015 0.430 0 0 0
119 35 3 0.0 2.641 3.258 26.859 0 0 0
120 35 3 0.0 2.329 3.866 26.537 0 0 0
121 36 3 0.0 2.085 0.790 24.799 0 0 0
122 36 3 0.0 1.662 0.179 24.971 0 0 0
125 37 3 0.0 5.991 1.280 31.370 0 0 0
126 37 3 0.0 6.536 0.823 30.877 0 0 0
131 38 3 0.0 5.762 4.206 28.240 0 0 0
132 38 3 0.0 5.952 4.384 28.877 0 0 0
133 39 3 0.0 3.822 3.552 25.096 0 0 0
134 39 3 0.0 4.506 3.984 24.806 0 0 0
139 40 3 0.0 7.997 3.704 26.145 0 0 0
140 40 3 0.0 8.440 4.563 26.139 0 0 0

Bonds

1 1 3 25
2 1 3 40
3 1 3 44
4 1 3 47
5 1 4 43
6 1 4 48
7 1 4 29
8 1 4 39
9 1 7 26
10 1 7 29
11 1 8 25
12 1 8 34
13 1 8 40
14 1 9 43
15 1 9 48
16 1 10 39
17 1 10 44
18 1 10 47
19 1 13 48
20 1 13 39
21 1 13 44
22 1 13 37
23 1 13 41
24 1 13 46
25 1 14 47
26 1 14 40
27 1 14 38
28 1 14 42
29 1 15 38
30 1 15 45
31 1 15 47
32 1 15 41
33 1 16 37
34 1 16 46
35 1 16 48
36 1 16 42
37 1 30 129
38 1 30 135
39 1 33 130
40 1 33 136
41 1 11 37
42 1 11 42
43 1 11 45
44 1 11 52
45 1 11 56
46 1 11 59
47 1 12 38
48 1 12 41
49 1 12 46
50 1 12 51
51 1 12 55
52 1 12 60
53 1 17 52
54 1 17 41
55 1 17 55
56 1 17 60
57 1 18 51
58 1 18 38
59 1 18 42
60 1 18 45
61 1 18 56
62 1 18 59
63 1 19 49
64 1 19 54
65 1 19 57
66 1 19 32
67 1 19 35
68 1 20 58
69 1 20 50
70 1 20 53
71 1 21 51
72 1 21 60
73 1 21 49
74 1 21 58
75 1 21 56
76 1 22 55
77 1 22 52
78 1 22 59
79 1 22 50
80 1 23 57
81 1 23 52
82 1 23 56
83 1 23 59
84 1 23 50
85 1 23 53
86 1 24 51
87 1 24 55
88 1 24 60
89 1 24 49
90 1 24 54
91 1 24 58
92 1 49 1
93 1 50 2
94 1 53 1
95 1 54 2
96 1 57 2
97 1 58 1
98 1 1 36
99 1 1 31
100 1 2 32
101 1 2 35
102 1 5 32
103 1 5 36
104 1 6 28
105 1 6 31
106 1 6 35
107 1 27 98
108 1 27 97
109 1 35 84
110 1 61 62
111 1 65 66
112 1 71 72
113 1 73 74
114 1 83 84
115 1 87 88
116 1 93 94
117 1 63 64
118 1 67 68
119 1 69 70
120 1 75 76
121 1 77 78
122 1 79 80
123 1 81 82
124 1 85 86
125 1 89 90
126 1 91 92
127 1 95 96
128 1 99 100
129 1 114 113
130 1 123 124
131 1 127 128
132 1 138 137
133 1 101 102
134 1 103 104
135 1 105 106
136 1 107 108
137 1 109 110
138 1 111 112
139 1 115 116
140 1 117 118
141 1 119 120
142 1 121 122
143 1 125 126
144 1 131 132
145 1 133 134
146 1 139 140

